                         Program Version 4.2.0 -  RELEASE  -
|  1> # ORCA input file
|  2> # SCF done        -21.049943080040          0.000181302321
|  3> ! B3LYP/G D3BJ Opt RIJCOSX def2-SVP def2/J
|  4> * xyz 0 1
|  5>    C       -1.28046         0.06672        -0.00285
|  6>    C       -0.42254         1.12544         0.00010
|  7>    O       -0.72709         2.44842         0.00254
|  8>    C       -2.09284         2.78322         0.00158
|  9>    C        0.94284         0.71845         0.00047
| 10>    C        1.08023        -0.62771        -0.00216
| 11>    S       -0.43574        -1.43609        -0.00522
| 12>    H       -2.35102         0.05693        -0.00383
| 13>    H       -2.13577         3.87082         0.00367
| 14>    H       -2.59816         2.39525         0.89227
| 15>    H       -2.59602         2.39877        -0.89185
| 16>    H        1.75496         1.42084         0.00263
| 17>    H        1.98379        -1.20340        -0.00255
| 18> *
| 19>
| 20>                          ****END OF INPUT****
 Total Charge           Charge          ....    0
 Multiplicity           Mult            ....    1
 Number of Electrons    NEL             ....   60
Dispersion correction           -0.021919978
FINAL SINGLE POINT ENERGY      -667.241564125765
Dispersion correction            ... done
Dispersion correction           -0.021918997
FINAL SINGLE POINT ENERGY      -667.243156927895
Dispersion correction            ... done
Dispersion correction           -0.021928467
FINAL SINGLE POINT ENERGY      -667.243215209225
Dispersion correction            ... done
Dispersion correction           -0.021932250
FINAL SINGLE POINT ENERGY      -667.243224192899
Dispersion correction            ... done
Dispersion correction           -0.021933209
FINAL SINGLE POINT ENERGY      -667.243227446610
Dispersion correction            ... done
                    ***********************HURRAY********************

CARTESIAN COORDINATES (ANGSTROEM)
---------------------------------
  C     -1.296079    0.071890   -0.003192
  C     -0.416886    1.134953   -0.000358
  O     -0.720532    2.453118    0.001586
  C     -2.089991    2.782196    0.001653
  C      0.956893    0.721839    0.000335
  C      1.087212   -0.640026   -0.001932
  S     -0.448067   -1.441644   -0.003550
  H     -2.382017    0.085295   -0.004893
  H     -2.162740    3.877618    0.005053
  H     -2.599760    2.379741    0.896817
  H     -2.598497    2.385334   -0.896740
  H      1.785544    1.429787    0.002248
  H      2.007099   -1.222442   -0.002226

 Multiplicity           Mult            ....    1
 Number of Electrons    NEL             ....   60
 Basis Dimension        Dim             ....  132

ORBITAL ENERGIES
----------------

  NO   OCC          E(Eh)            E(eV)
   0   2.0000     -88.868487     -2418.2345
   1   2.0000     -19.165583      -521.5220
   2   2.0000     -10.246816      -278.8300
   3   2.0000     -10.246309      -278.8162
   4   2.0000     -10.211392      -277.8661
   5   2.0000     -10.200519      -277.5702
   6   2.0000     -10.189409      -277.2679
   7   2.0000      -7.963435      -216.6961
   8   2.0000      -5.931769      -161.4116
   9   2.0000      -5.927637      -161.2992
  10   2.0000      -5.924429      -161.2119
  11   2.0000      -1.061821       -28.8936
  12   2.0000      -0.870437       -23.6858
  13   2.0000      -0.745428       -20.2841
  14   2.0000      -0.716711       -19.5027
  15   2.0000      -0.681388       -18.5415
  16   2.0000      -0.569306       -15.4916
  17   2.0000      -0.551858       -15.0168
  18   2.0000      -0.530646       -14.4396
  19   2.0000      -0.472964       -12.8700
  20   2.0000      -0.461631       -12.5616
  21   2.0000      -0.443698       -12.0736
  22   2.0000      -0.404699       -11.0124
  23   2.0000      -0.388619       -10.5749
  24   2.0000      -0.386412       -10.5148
  25   2.0000      -0.356711        -9.7066
  26   2.0000      -0.332888        -9.0583
  27   2.0000      -0.326182        -8.8759
  28   2.0000      -0.244617        -6.6564
  29   2.0000      -0.218089        -5.9345
  30   0.0000      -0.009920        -0.2699
  31   0.0000       0.046354         1.2614
  32   0.0000       0.063206         1.7199
  33   0.0000       0.073719         2.0060
  34   0.0000       0.084563         2.3011

MULLIKEN ATOMIC CHARGES
-----------------------
   0 C :   -0.213921
   1 C :    0.208861
   2 O :   -0.306184
   3 C :    0.178896
   4 C :    0.027244
   5 C :   -0.090494
   6 S :    0.085876
   7 H :    0.019906
   8 H :    0.035223
   9 H :    0.017242
  10 H :    0.017222
  11 H :   -0.010377
  12 H :    0.030505
Sum of atomic charges:   -0.0000000

LOEWDIN ATOMIC CHARGES
----------------------
   0 C :   -0.266506
   1 C :    0.007222
   2 O :   -0.101141
   3 C :    0.079897
   4 C :   -0.078428
   5 C :   -0.183543
   6 S :    0.412661
   7 H :    0.020570
   8 H :    0.026236
   9 H :    0.012293
  10 H :    0.012289
  11 H :    0.033199
  12 H :    0.025252

  Mayer bond orders larger than 0.100000
B(  0-C ,  1-C ) :   1.4883 B(  0-C ,  6-S ) :   1.1084 B(  0-C ,  7-H ) :   0.9741
B(  1-C ,  2-O ) :   1.1418 B(  1-C ,  4-C ) :   1.2486 B(  2-O ,  3-C ) :   0.9703
B(  3-C ,  8-H ) :   0.9785 B(  3-C ,  9-H ) :   0.9637 B(  3-C , 10-H ) :   0.9638
B(  4-C ,  5-C ) :   1.5548 B(  4-C , 11-H ) :   0.9964 B(  5-C ,  6-S ) :   1.1800
B(  5-C , 12-H ) :   0.9680

Dispersion correction           -0.021932964
FINAL SINGLE POINT ENERGY      -667.243229892972

DIPOLE MOMENT
-------------
                                X             Y             Z
Electronic contribution:      2.59888      -5.75858      -0.00640
Nuclear contribution   :     -2.97265       5.95600       0.00677
                        -----------------------------------------
Total Dipole Moment    :     -0.37376       0.19742       0.00037
                        -----------------------------------------
Magnitude (a.u.)       :      0.42270
Magnitude (Debye)      :      1.07442

Rotational constants in cm-1:     0.187441     0.051913     0.040974
Rotational constants in MHz :  5619.341273  1556.312032  1228.372682

                             ****ORCA TERMINATED NORMALLY****
TOTAL RUN TIME: 0 days 0 hours 2 minutes 21 seconds 704 msec
