                         Program Version 4.2.0 -  RELEASE  -
|  1> # ORCA input file
|  2> # SCF done        -30.748730344314          0.000319569601
|  3> ! B3LYP/G D3BJ Opt RIJCOSX def2-SVP def2/J
|  4> * xyz 0 1
|  5>    C       -1.39011        -1.46457        -0.00177
|  6>    O       -1.61824        -2.64444        -0.00225
|  7>    C       -0.09298        -0.74298        -0.00159
|  8>    C       -0.35537         0.63064        -0.00093
|  9>    C        0.67016         1.55325        -0.00063
| 10>    C        1.97485         1.06972        -0.00100
| 11>    C        2.23501        -0.29227        -0.00166
| 12>    C        1.20041        -1.22264        -0.00197
| 13>    C       -1.82714         0.82332        -0.00068
| 14>    O       -2.47409         1.83602        -0.00014
| 15>    N       -2.35004        -0.46225        -0.00124
| 16>    H        0.45986         2.61136        -0.00012
| 17>    H        2.79897         1.76736        -0.00079
| 18>    H        3.25825        -0.63702        -0.00196
| 19>    H        1.39492        -2.28377        -0.00249
| 20>    H       -3.34196        -0.65172        -0.00118
| 21> *
| 22>
| 23>                          ****END OF INPUT****
 Total Charge           Charge          ....    0
 Multiplicity           Mult            ....    1
 Number of Electrons    NEL             ....   76
Dispersion correction           -0.032538510
FINAL SINGLE POINT ENERGY      -512.756676582161
Dispersion correction            ... done
Dispersion correction           -0.032425902
FINAL SINGLE POINT ENERGY      -512.758459665327
Dispersion correction            ... done
Dispersion correction           -0.032415978
FINAL SINGLE POINT ENERGY      -512.758514628140
Dispersion correction            ... done
Dispersion correction           -0.032417405
FINAL SINGLE POINT ENERGY      -512.758521350357
Dispersion correction            ... done
                    ***********************HURRAY********************

CARTESIAN COORDINATES (ANGSTROEM)
---------------------------------
  C     -1.404251   -1.477792   -0.001808
  O     -1.622757   -2.664517   -0.002301
  C     -0.093861   -0.748061   -0.001599
  C     -0.355769    0.626749   -0.000951
  C      0.668214    1.563689   -0.000690
  C      1.985204    1.081446   -0.001056
  C      2.249982   -0.295902   -0.001640
  C      1.207579   -1.234519   -0.001926
  C     -1.838002    0.829524   -0.000592
  O     -2.463705    1.860816    0.000171
  N     -2.373434   -0.464959   -0.001351
  H      0.444151    2.632807   -0.000204
  H      2.818286    1.787825   -0.000863
  H      3.286024   -0.643044   -0.001885
  H      1.404625   -2.308455   -0.002402
  H     -3.369785   -0.655598   -0.001304

 Multiplicity           Mult            ....    1
 Number of Electrons    NEL             ....   76
 Basis Dimension        Dim             ....  179

ORBITAL ENERGIES
----------------

  NO   OCC          E(Eh)            E(eV)
   0   2.0000     -19.137135      -520.7479
   1   2.0000     -19.136806      -520.7390
   2   2.0000     -14.380954      -391.3257
   3   2.0000     -10.317705      -280.7590
   4   2.0000     -10.317083      -280.7421
   5   2.0000     -10.224316      -278.2178
   6   2.0000     -10.224116      -278.2123
   7   2.0000     -10.223072      -278.1839
   8   2.0000     -10.222725      -278.1745
   9   2.0000     -10.221191      -278.1328
  10   2.0000     -10.220154      -278.1045
  11   2.0000      -1.067059       -29.0361
  12   2.0000      -1.049607       -28.5612
  13   2.0000      -0.954746       -25.9800
  14   2.0000      -0.878121       -23.8949
  15   2.0000      -0.785371       -21.3710
  16   2.0000      -0.774058       -21.0632
  17   2.0000      -0.673030       -18.3141
  18   2.0000      -0.669859       -18.2278
  19   2.0000      -0.615013       -16.7353
  20   2.0000      -0.591764       -16.1027
  21   2.0000      -0.532753       -14.4969
  22   2.0000      -0.519450       -14.1350
  23   2.0000      -0.489950       -13.3322
  24   2.0000      -0.479577       -13.0499
  25   2.0000      -0.465470       -12.6661
  26   2.0000      -0.462877       -12.5955
  27   2.0000      -0.445745       -12.1294
  28   2.0000      -0.443211       -12.0604
  29   2.0000      -0.408648       -11.1199
  30   2.0000      -0.396054       -10.7772
  31   2.0000      -0.390538       -10.6271
  32   2.0000      -0.383004       -10.4221
  33   2.0000      -0.302215        -8.2237
  34   2.0000      -0.300488        -8.1767
  35   2.0000      -0.286897        -7.8069
  36   2.0000      -0.283729        -7.7207
  37   2.0000      -0.275385        -7.4936
  38   0.0000      -0.089512        -2.4357
  39   0.0000      -0.050912        -1.3854
  40   0.0000       0.018378         0.5001
  41   0.0000       0.051872         1.4115
  42   0.0000       0.069946         1.9033

MULLIKEN ATOMIC CHARGES
-----------------------
   0 C :    0.183398
   1 O :   -0.157644
   2 C :   -0.019554
   3 C :   -0.022572
   4 C :   -0.029869
   5 C :    0.031959
   6 C :    0.035342
   7 C :   -0.026455
   8 C :    0.185036
   9 O :   -0.157434
  10 N :   -0.164726
  11 H :    0.005116
  12 H :    0.003237
  13 H :   -0.001585
  14 H :    0.002905
  15 H :    0.132845
Sum of atomic charges:   -0.0000000

LOEWDIN ATOMIC CHARGES
----------------------
   0 C :    0.087406
   1 O :   -0.154054
   2 C :   -0.053467
   3 C :   -0.053333
   4 C :    0.008939
   5 C :   -0.005438
   6 C :   -0.004707
   7 C :    0.009506
   8 C :    0.086194
   9 O :   -0.154290
  10 N :   -0.008641
  11 H :    0.040730
  12 H :    0.034566
  13 H :    0.033487
  14 H :    0.040146
  15 H :    0.092955

  Mayer bond orders larger than 0.100000
B(  0-C ,  1-O ) :   2.2301 B(  0-C ,  2-C ) :   0.8805 B(  0-C , 10-N ) :   1.0686
B(  2-C ,  3-C ) :   1.3736 B(  2-C ,  7-C ) :   1.3976 B(  3-C ,  4-C ) :   1.3926
B(  3-C ,  8-C ) :   0.8878 B(  4-C ,  5-C ) :   1.3481 B(  4-C , 11-H ) :   0.9994
B(  5-C ,  6-C ) :   1.3870 B(  5-C , 12-H ) :   0.9843 B(  6-C ,  7-C ) :   1.3440
B(  6-C , 13-H ) :   0.9868 B(  7-C , 14-H ) :   0.9992 B(  8-C ,  9-O ) :   2.2311
B(  8-C , 10-N ) :   1.0659 B( 10-N , 15-H ) :   0.9155

Dispersion correction           -0.032419396
FINAL SINGLE POINT ENERGY      -512.758520890691

DIPOLE MOMENT
-------------
                                X             Y             Z
Electronic contribution:     -5.29158      -1.02168       0.00023
Nuclear contribution   :      6.31260       1.21151      -0.00041
                        -----------------------------------------
Total Dipole Moment    :      1.02102       0.18983      -0.00018
                        -----------------------------------------
Magnitude (a.u.)       :      1.03852
Magnitude (Debye)      :      2.63970

Rotational constants in cm-1:     0.057975     0.039771     0.023589
Rotational constants in MHz :  1738.041916  1192.290074   707.172478

                             ****ORCA TERMINATED NORMALLY****
TOTAL RUN TIME: 0 days 0 hours 3 minutes 59 seconds 384 msec
