                         Program Version 4.2.0 -  RELEASE  -
|  1> # ORCA input file
|  2> # SCF done        -20.226264910434          0.000186803214
|  3> ! B3LYP/G D3BJ Opt RIJCOSX def2-SVP def2/J
|  4> * xyz 0 1
|  5>    C       -1.22335         0.11413        -0.00351
|  6>    C       -0.31759         1.11877        -0.00051
|  7>    C        1.02198         0.64086         0.00040
|  8>    S        2.36413         1.77516         0.00422
|  9>    C        3.79751         0.66330         0.00565
| 10>    C        1.09120        -0.71726        -0.00196
| 11>    S       -0.47604        -1.43498        -0.00528
| 12>    H       -2.29275         0.18198        -0.00478
| 13>    H       -0.56242         2.16489         0.00106
| 14>    H        4.67388         1.30362         0.00847
| 15>    H        3.78717         0.05070        -0.89105
| 16>    H        3.78329         0.04809         0.90051
| 17>    H        1.95031        -1.35564        -0.00199
| 18> *
| 19>
| 20>                          ****END OF INPUT****
 Total Charge           Charge          ....    0
 Multiplicity           Mult            ....    1
 Number of Electrons    NEL             ....   68
Dispersion correction           -0.026713407
FINAL SINGLE POINT ENERGY      -990.173350054238
Dispersion correction            ... done
Dispersion correction           -0.026621212
FINAL SINGLE POINT ENERGY      -990.175362266586
Dispersion correction            ... done
Dispersion correction           -0.026600080
FINAL SINGLE POINT ENERGY      -990.175456200894
Dispersion correction            ... done
FINAL SINGLE POINT ENERGY      -990.175471458820
FINAL SINGLE POINT ENERGY      -990.175457110995
Dispersion correction            ... done
Dispersion correction           -0.026589845
FINAL SINGLE POINT ENERGY      -990.175473501956
Dispersion correction            ... done
Dispersion correction           -0.026591165
FINAL SINGLE POINT ENERGY      -990.175474298847
Dispersion correction            ... done
                    ***********************HURRAY********************

CARTESIAN COORDINATES (ANGSTROEM)
---------------------------------
  C     -1.248912    0.110050   -0.004911
  C     -0.328207    1.122066   -0.000878
  C      1.025719    0.638000    0.002874
  S      2.371482    1.782166    0.009503
  C      3.807759    0.673998    0.004365
  C      1.085034   -0.737733    0.001229
  S     -0.500072   -1.447721   -0.005456
  H     -2.334276    0.201268   -0.008365
  H     -0.591921    2.180725   -0.000520
  H      4.693244    1.324828    0.007570
  H      3.826639    0.045608   -0.899269
  H      3.826672    0.036851    0.901815
  H      1.964158   -1.376485    0.003275

 Multiplicity           Mult            ....    1
 Number of Electrons    NEL             ....   68
 Basis Dimension        Dim             ....  136

ORBITAL ENERGIES
----------------

  NO   OCC          E(Eh)            E(eV)
   0   2.0000     -88.872525     -2418.3444
   1   2.0000     -88.847761     -2417.6705
   2   2.0000     -10.220636      -278.1177
   3   2.0000     -10.217772      -278.0397
   4   2.0000     -10.213800      -277.9316
   5   2.0000     -10.208366      -277.7838
   6   2.0000     -10.196235      -277.4537
   7   2.0000      -7.967606      -216.8096
   8   2.0000      -7.942562      -216.1281
   9   2.0000      -5.935860      -161.5230
  10   2.0000      -5.931741      -161.4109
  11   2.0000      -5.928720      -161.3287
  12   2.0000      -5.911855      -160.8697
  13   2.0000      -5.908042      -160.7660
  14   2.0000      -5.901178      -160.5792
  15   2.0000      -0.880648       -23.9636
  16   2.0000      -0.800667       -21.7873
  17   2.0000      -0.730572       -19.8799
  18   2.0000      -0.713425       -19.4133
  19   2.0000      -0.641697       -17.4615
  20   2.0000      -0.565728       -15.3942
  21   2.0000      -0.538837       -14.6625
  22   2.0000      -0.496217       -13.5027
  23   2.0000      -0.440408       -11.9841
  24   2.0000      -0.436316       -11.8728
  25   2.0000      -0.416731       -11.3398
  26   2.0000      -0.397480       -10.8160
  27   2.0000      -0.386283       -10.5113
  28   2.0000      -0.379343       -10.3224
  29   2.0000      -0.357352        -9.7240
  30   2.0000      -0.322748        -8.7824
  31   2.0000      -0.288794        -7.8585
  32   2.0000      -0.246689        -6.7127
  33   2.0000      -0.207343        -5.6421
  34   0.0000      -0.016133        -0.4390
  35   0.0000       0.029698         0.8081
  36   0.0000       0.048186         1.3112
  37   0.0000       0.055243         1.5033
  38   0.0000       0.066531         1.8104

MULLIKEN ATOMIC CHARGES
-----------------------
   0 C :   -0.091291
   1 C :    0.039281
   2 C :   -0.011568
   3 S :   -0.018056
   4 C :   -0.089412
   5 C :   -0.150177
   6 S :    0.092155
   7 H :    0.034307
   8 H :   -0.005901
   9 H :    0.057020
  10 H :    0.062583
  11 H :    0.062671
  12 H :    0.018386
Sum of atomic charges:    0.0000000

LOEWDIN ATOMIC CHARGES
----------------------
   0 C :   -0.186599
   1 C :   -0.079429
   2 C :   -0.198723
   3 S :    0.282785
   4 C :   -0.157365
   5 C :   -0.238235
   6 S :    0.418124
   7 H :    0.026816
   8 H :    0.029994
   9 H :    0.032884
  10 H :    0.025054
  11 H :    0.024995
  12 H :    0.019699

  Mayer bond orders larger than 0.100000
B(  0-C ,  1-C ) :   1.5907 B(  0-C ,  6-S ) :   1.1753 B(  0-C ,  7-H ) :   0.9681
B(  1-C ,  2-C ) :   1.2498 B(  1-C ,  8-H ) :   0.9907 B(  2-C ,  3-S ) :   1.0084
B(  2-C ,  5-C ) :   1.5573 B(  3-S ,  4-C ) :   1.0276 B(  4-C ,  9-H ) :   0.9698
B(  4-C , 10-H ) :   0.9636 B(  4-C , 11-H ) :   0.9635 B(  5-C ,  6-S ) :   1.1339
B(  5-C , 12-H ) :   0.9681

Dispersion correction           -0.026592500
FINAL SINGLE POINT ENERGY      -990.175474378943

DIPOLE MOMENT
-------------
                                X             Y             Z
Electronic contribution:     -5.04234      -0.97573       0.00095
Nuclear contribution   :      5.33795       0.76297      -0.00301
                        -----------------------------------------
Total Dipole Moment    :      0.29560      -0.21276      -0.00206
                        -----------------------------------------
Magnitude (a.u.)       :      0.36422
Magnitude (Debye)      :      0.92576

Rotational constants in cm-1:     0.153963     0.037668     0.030443
Rotational constants in MHz :  4615.706523  1129.266030   912.649887

                             ****ORCA TERMINATED NORMALLY****
TOTAL RUN TIME: 0 days 0 hours 3 minutes 11 seconds 861 msec
