                         Program Version 4.2.0 -  RELEASE  -
|  1> # ORCA input file
|  2> # SCF done        -54.834318433729          0.000645009616
|  3> ! B3LYP/G D3BJ Opt RIJCOSX def2-SVP def2/J
|  4> * xyz 0 1
|  5>    C        1.44494        -1.30137         0.10665
|  6>    O        1.81998        -2.43349        -0.04253
|  7>    C        0.19369        -0.66691        -0.34409
|  8>    C       -0.92978        -1.00785        -1.02844
|  9>    F       -1.25390        -2.17411        -1.54861
| 10>    S       -2.03161         0.33192        -1.18892
| 11>    C       -0.96591         1.36826        -0.32338
| 12>    C        0.16264         0.70981         0.05680
| 13>    C        1.38580         1.02903         0.76882
| 14>    N        1.76929         2.13871         1.25443
| 15>    N        1.07758         3.30546         1.23053
| 16>    O        1.42802         4.10953         0.40032
| 17>    O        0.24544         3.47109         2.08471
| 18>    C        2.29306         3.33351        -2.06562
| 19>    O        1.65689         2.39170        -1.90197
| 20>    O        2.94090         4.24962        -2.26671
| 21>    C        2.18657        -0.20275         0.81758
| 22>    C        3.38424        -0.34910         1.38254
| 23>    H       -1.24897         2.38928        -0.15510
| 24>    H        3.87533         0.47152         1.87734
| 25>    H        3.88278        -1.30428         1.35201
| 26> *
| 27>
| 28>                          ****END OF INPUT****
 Total Charge           Charge          ....    0
 Multiplicity           Mult            ....    1
 Number of Electrons    NEL             ....  136
Dispersion correction           -0.049994775
FINAL SINGLE POINT ENERGY     -1327.507637672046
Dispersion correction            ... done
Dispersion correction           -0.049813280
FINAL SINGLE POINT ENERGY     -1327.513142567183
Dispersion correction            ... done
Dispersion correction           -0.049827510
FINAL SINGLE POINT ENERGY     -1327.514745248232
Dispersion correction            ... done
FINAL SINGLE POINT ENERGY     -1327.515691494287
FINAL SINGLE POINT ENERGY     -1327.515952528384
FINAL SINGLE POINT ENERGY     -1327.516079652387
FINAL SINGLE POINT ENERGY     -1327.516178241141
FINAL SINGLE POINT ENERGY     -1327.516242034478
FINAL SINGLE POINT ENERGY     -1327.516270155444
FINAL SINGLE POINT ENERGY     -1327.516282976839
FINAL SINGLE POINT ENERGY     -1327.516440699998
FINAL SINGLE POINT ENERGY     -1327.516414814978
FINAL SINGLE POINT ENERGY     -1327.516377388781
FINAL SINGLE POINT ENERGY     -1327.516333047795
FINAL SINGLE POINT ENERGY     -1327.516265678134
FINAL SINGLE POINT ENERGY     -1327.516229256555
FINAL SINGLE POINT ENERGY     -1327.516215279748
Dispersion correction            ... done
Dispersion correction           -0.049787403
FINAL SINGLE POINT ENERGY     -1327.516218563044
Dispersion correction            ... done
Dispersion correction           -0.049794135
FINAL SINGLE POINT ENERGY     -1327.516227586716
Dispersion correction            ... done
                    ***********************HURRAY********************

CARTESIAN COORDINATES (ANGSTROEM)
---------------------------------
  C      1.451614   -1.295555    0.126962
  O      1.806749   -2.441328   -0.023636
  C      0.208217   -0.631669   -0.328713
  C     -0.906474   -0.969335   -1.042894
  F     -1.197975   -2.120814   -1.603580
  S     -2.026229    0.369082   -1.166506
  C     -0.982410    1.399890   -0.239187
  C      0.163515    0.736960    0.118032
  C      1.417049    1.047511    0.825675
  N      1.878624    2.142068    1.318666
  N      1.035141    3.273706    1.190695
  O      1.459663    4.161506    0.482622
  O      0.013681    3.295152    1.848005
  C      2.269359    3.336393   -2.168194
  O      1.475732    2.484792   -2.103824
  O      3.068072    4.172824   -2.260939
  C      2.212974   -0.208691    0.855277
  C      3.420504   -0.383716    1.406128
  H     -1.288458    2.419919   -0.020646
  H      3.941461    0.437780    1.902968
  H      3.896171   -1.366895    1.349448

 Multiplicity           Mult            ....    1
 Number of Electrons    NEL             ....  136
 Basis Dimension        Dim             ....  271

ORBITAL ENERGIES
----------------

  NO   OCC          E(Eh)            E(eV)
   0   2.0000     -88.928010     -2419.8542
   1   2.0000     -24.756940      -673.6706
   2   2.0000     -19.216291      -522.9019
   3   2.0000     -19.214649      -522.8572
   4   2.0000     -19.187992      -522.1318
   5   2.0000     -19.187787      -522.1262
   6   2.0000     -19.149680      -521.0893
   7   2.0000     -14.600289      -397.2941
   8   2.0000     -14.394995      -391.7077
   9   2.0000     -10.377976      -282.3991
  10   2.0000     -10.340895      -281.3901
  11   2.0000     -10.305701      -280.4324
  12   2.0000     -10.297784      -280.2170
  13   2.0000     -10.262432      -279.2550
  14   2.0000     -10.245808      -278.8026
  15   2.0000     -10.240852      -278.6677
  16   2.0000     -10.235072      -278.5105
  17   2.0000     -10.232478      -278.4399
  18   2.0000      -8.023306      -218.3253
  19   2.0000      -5.991317      -163.0320
  20   2.0000      -5.987173      -162.9193
  21   2.0000      -5.984687      -162.8516
  22   2.0000      -1.271440       -34.5976
  23   2.0000      -1.260962       -34.3125
  24   2.0000      -1.147867       -31.2350
  25   2.0000      -1.109174       -30.1822
  26   2.0000      -1.081232       -29.4218
  27   2.0000      -1.056468       -28.7480
  28   2.0000      -0.985924       -26.8283
  29   2.0000      -0.932279       -25.3686
  30   2.0000      -0.860978       -23.4284
  31   2.0000      -0.794103       -21.6086
  32   2.0000      -0.772230       -21.0135
  33   2.0000      -0.732482       -19.9318
  34   2.0000      -0.700041       -19.0491
  35   2.0000      -0.644495       -17.5376
  36   2.0000      -0.625733       -17.0271
  37   2.0000      -0.588817       -16.0225
  38   2.0000      -0.584828       -15.9140
  39   2.0000      -0.570764       -15.5313
  40   2.0000      -0.558211       -15.1897
  41   2.0000      -0.554029       -15.0759
  42   2.0000      -0.537440       -14.6245
  43   2.0000      -0.526608       -14.3297
  44   2.0000      -0.520664       -14.1680
  45   2.0000      -0.517683       -14.0869
  46   2.0000      -0.516623       -14.0580
  47   2.0000      -0.512944       -13.9579
  48   2.0000      -0.507991       -13.8231
  49   2.0000      -0.487951       -13.2778
  50   2.0000      -0.468690       -12.7537
  51   2.0000      -0.462545       -12.5865
  52   2.0000      -0.450050       -12.2465
  53   2.0000      -0.431459       -11.7406
  54   2.0000      -0.414525       -11.2798
  55   2.0000      -0.411568       -11.1993
  56   2.0000      -0.398445       -10.8423
  57   2.0000      -0.396902       -10.8002
  58   2.0000      -0.371712       -10.1148
  59   2.0000      -0.371540       -10.1101
  60   2.0000      -0.368420       -10.0252
  61   2.0000      -0.337598        -9.1865
  62   2.0000      -0.331220        -9.0130
  63   2.0000      -0.319335        -8.6895
  64   2.0000      -0.304838        -8.2951
  65   2.0000      -0.293173        -7.9776
  66   2.0000      -0.282072        -7.6756
  67   2.0000      -0.274911        -7.4807
  68   0.0000      -0.123014        -3.3474
  69   0.0000      -0.090893        -2.4733
  70   0.0000      -0.071902        -1.9565
  71   0.0000      -0.038746        -1.0543
  72   0.0000      -0.013476        -0.3667

MULLIKEN ATOMIC CHARGES
-----------------------
   0 C :    0.190469
   1 O :   -0.132683
   2 C :   -0.035419
   3 C :    0.062955
   4 F :   -0.120996
   5 S :    0.132252
   6 C :   -0.127456
   7 C :    0.097964
   8 C :    0.037711
   9 N :    0.007735
  10 N :    0.270969
  11 O :   -0.216599
  12 O :   -0.221739
  13 C :    0.269296
  14 O :   -0.158746
  15 O :   -0.118002
  16 C :   -0.113720
  17 C :    0.011253
  18 H :    0.055142
  19 H :    0.054451
  20 H :    0.055164
Sum of atomic charges:    0.0000000

LOEWDIN ATOMIC CHARGES
----------------------
   0 C :    0.080405
   1 O :   -0.127419
   2 C :   -0.125760
   3 C :   -0.048449
   4 F :   -0.012662
   5 S :    0.473334
   6 C :   -0.146663
   7 C :   -0.071167
   8 C :    0.042499
   9 N :   -0.077043
  10 N :    0.288275
  11 O :   -0.188313
  12 O :   -0.198711
  13 C :    0.129160
  14 O :   -0.087523
  15 O :   -0.053640
  16 C :   -0.075160
  17 C :    0.072524
  18 H :    0.036505
  19 H :    0.044080
  20 H :    0.045728

  Mayer bond orders larger than 0.100000
B(  0-C ,  1-O ) :   2.2638 B(  0-C ,  2-C ) :   0.9230 B(  0-C , 16-C ) :   0.9175
B(  2-C ,  3-C ) :   1.3914 B(  2-C ,  7-C ) :   1.2153 B(  3-C ,  4-F ) :   1.1951
B(  3-C ,  5-S ) :   1.1695 B(  5-S ,  6-C ) :   1.1479 B(  6-C ,  7-C ) :   1.5381
B(  6-C , 18-H ) :   0.9534 B(  7-C ,  8-C ) :   0.9864 B(  8-C ,  9-N ) :   1.8699
B(  8-C , 16-C ) :   1.0166 B(  9-N , 10-N ) :   0.9137 B( 10-N , 11-O ) :   1.5616
B( 10-N , 12-O ) :   1.5468 B( 11-O , 12-O ) :   0.2605 B( 13-C , 14-O ) :   2.1200
B( 13-C , 15-O ) :   2.1947 B( 14-O , 15-O ) :   0.2648 B( 16-C , 17-C ) :   1.9546
B( 17-C , 19-H ) :   0.9284 B( 17-C , 20-H ) :   0.9155

Dispersion correction           -0.049802132
FINAL SINGLE POINT ENERGY     -1327.516235103222

DIPOLE MOMENT
-------------
                                X             Y             Z
Electronic contribution:     -6.47908      -1.92286      -5.26766
Nuclear contribution   :      6.03428       1.59786       5.02233
                        -----------------------------------------
Total Dipole Moment    :     -0.44480      -0.32500      -0.24533
                        -----------------------------------------
Magnitude (a.u.)       :      0.60304
Magnitude (Debye)      :      1.53281

Rotational constants in cm-1:     0.016345     0.009902     0.008623
Rotational constants in MHz :   490.014547   296.859741   258.502888

                             ****ORCA TERMINATED NORMALLY****
TOTAL RUN TIME: 0 days 1 hours 26 minutes 13 seconds 135 msec
