                         Program Version 4.2.0 -  RELEASE  -
|  1> # ORCA input file
|  2> # SCF done        -35.758247209225          0.000242667865
|  3> ! B3LYP/G D3BJ Opt RIJCOSX def2-SVP def2/J
|  4> * xyz 0 1
|  5>    C       -0.85401        -1.45163         0.00100
|  6>    C       -2.02157        -0.74008         0.00221
|  7>    F       -3.19625        -1.39316         0.00474
|  8>    C       -2.04760         0.67594         0.00087
|  9>    F       -3.24551         1.28526         0.00220
| 10>    C       -0.90711         1.43009        -0.00173
| 11>    C        0.30277         0.72713        -0.00306
| 12>    C        0.32901        -0.70457        -0.00171
| 13>    N        1.61861        -1.07744        -0.00360
| 14>    N        2.27716         0.04782        -0.00582
| 15>    N        1.57721         1.14795        -0.00570
| 16>    C        3.70766         0.07017        -0.00820
| 17>    H       -0.85018        -2.52822         0.00204
| 18>    H       -0.94282         2.50608        -0.00273
| 19>    H        4.05929        -0.95863        -0.01084
| 20>    H        4.07053         0.59137         0.87793
| 21>    H        4.06734         0.59506        -0.89343
| 22> *
| 23>
| 24>                          ****END OF INPUT****
 Total Charge           Charge          ....    0
 Multiplicity           Mult            ....    1
 Number of Electrons    NEL             ....   86
Dispersion correction           -0.031395517
FINAL SINGLE POINT ENERGY      -633.208049473962
Dispersion correction            ... done
Dispersion correction           -0.031355577
FINAL SINGLE POINT ENERGY      -633.210344391019
Dispersion correction            ... done
Dispersion correction           -0.031343975
FINAL SINGLE POINT ENERGY      -633.210537396190
Dispersion correction            ... done
Dispersion correction           -0.031340576
FINAL SINGLE POINT ENERGY      -633.210570509105
Dispersion correction            ... done
Dispersion correction           -0.031339595
FINAL SINGLE POINT ENERGY      -633.210577375507
Dispersion correction            ... done
                    ***********************HURRAY********************

CARTESIAN COORDINATES (ANGSTROEM)
---------------------------------
  C     -0.866470   -1.461541   -0.002476
  C     -2.039633   -0.749147    0.004445
  F     -3.213872   -1.385376    0.015243
  C     -2.062809    0.685092    0.002521
  F     -3.255967    1.283123    0.011003
  C     -0.914552    1.436429   -0.005735
  C      0.307765    0.723075   -0.009527
  C      0.332329   -0.707737   -0.008043
  N      1.622218   -1.101564   -0.008847
  N      2.286085    0.043365   -0.010329
  N      1.582053    1.162018   -0.011142
  C      3.734543    0.075290   -0.004976
  H     -0.878942   -2.551707   -0.000950
  H     -0.962598    2.525570   -0.006879
  H      4.088407   -0.960535   -0.007535
  H      4.089472    0.599710    0.892999
  H      4.096501    0.607074   -0.895603

 Multiplicity           Mult            ....    1
 Number of Electrons    NEL             ....   86
 Basis Dimension        Dim             ....  193

ORBITAL ENERGIES
----------------

  NO   OCC          E(Eh)            E(eV)
   0   2.0000     -24.711054      -672.4220
   1   2.0000     -24.710752      -672.4137
   2   2.0000     -14.460459      -393.4891
   3   2.0000     -14.366590      -390.9348
   4   2.0000     -14.364711      -390.8837
   5   2.0000     -10.291462      -280.0449
   6   2.0000     -10.291150      -280.0364
   7   2.0000     -10.250907      -278.9414
   8   2.0000     -10.232013      -278.4272
   9   2.0000     -10.231492      -278.4130
  10   2.0000     -10.215854      -277.9875
  11   2.0000     -10.215291      -277.9722
  12   2.0000      -1.229769       -33.4637
  13   2.0000      -1.214844       -33.0576
  14   2.0000      -1.118414       -30.4336
  15   2.0000      -0.902071       -24.5466
  16   2.0000      -0.888557       -24.1789
  17   2.0000      -0.831562       -22.6279
  18   2.0000      -0.768986       -20.9252
  19   2.0000      -0.726662       -19.7735
  20   2.0000      -0.655334       -17.8325
  21   2.0000      -0.646599       -17.5949
  22   2.0000      -0.606047       -16.4914
  23   2.0000      -0.573033       -15.5930
  24   2.0000      -0.551577       -15.0092
  25   2.0000      -0.546459       -14.8699
  26   2.0000      -0.519604       -14.1391
  27   2.0000      -0.496683       -13.5154
  28   2.0000      -0.488427       -13.2908
  29   2.0000      -0.486408       -13.2358
  30   2.0000      -0.468185       -12.7400
  31   2.0000      -0.463247       -12.6056
  32   2.0000      -0.441142       -12.0041
  33   2.0000      -0.435203       -11.8425
  34   2.0000      -0.431493       -11.7415
  35   2.0000      -0.412650       -11.2288
  36   2.0000      -0.382328       -10.4037
  37   2.0000      -0.352735        -9.5984
  38   2.0000      -0.328501        -8.9390
  39   2.0000      -0.328030        -8.9262
  40   2.0000      -0.307478        -8.3669
  41   2.0000      -0.257296        -7.0014
  42   2.0000      -0.245793        -6.6884
  43   0.0000      -0.064713        -1.7609
  44   0.0000       0.010875         0.2959
  45   0.0000       0.012616         0.3433
  46   0.0000       0.059757         1.6261
  47   0.0000       0.067846         1.8462

MULLIKEN ATOMIC CHARGES
-----------------------
   0 C :   -0.123329
   1 C :    0.239774
   2 F :   -0.181013
   3 C :    0.240106
   4 F :   -0.180218
   5 C :   -0.123855
   6 C :    0.046982
   7 C :    0.040633
   8 N :   -0.069250
   9 N :   -0.102773
  10 N :   -0.080638
  11 C :    0.161091
  12 H :   -0.007210
  13 H :   -0.007442
  14 H :    0.047207
  15 H :    0.049934
  16 H :    0.050002
Sum of atomic charges:    0.0000000

LOEWDIN ATOMIC CHARGES
----------------------
   0 C :   -0.049603
   1 C :    0.056393
   2 F :   -0.050961
   3 C :    0.057161
   4 F :   -0.049998
   5 C :   -0.050867
   6 C :   -0.051910
   7 C :   -0.054851
   8 N :   -0.097658
   9 N :    0.142452
  10 N :   -0.101380
  11 C :    0.040541
  12 H :    0.046137
  13 H :    0.046171
  14 H :    0.039852
  15 H :    0.039262
  16 H :    0.039260

  Mayer bond orders larger than 0.100000
B(  0-C ,  1-C ) :   1.4457 B(  0-C ,  5-C ) :   0.1483 B(  0-C ,  7-C ) :   1.1515
B(  0-C , 12-H ) :   1.0289 B(  1-C ,  2-F ) :   1.1009 B(  1-C ,  3-C ) :   1.1621
B(  3-C ,  4-F ) :   1.1013 B(  3-C ,  5-C ) :   1.4441 B(  5-C ,  6-C ) :   1.1518
B(  5-C , 13-H ) :   1.0288 B(  6-C ,  7-C ) :   1.2289 B(  6-C , 10-N ) :   1.4348
B(  7-C ,  8-N ) :   1.4362 B(  8-N ,  9-N ) :   1.2241 B(  8-N , 10-N ) :   0.1738
B(  9-N , 10-N ) :   1.2083 B(  9-N , 11-C ) :   0.9483 B( 11-C , 14-H ) :   0.9664
B( 11-C , 15-H ) :   0.9691 B( 11-C , 16-H ) :   0.9690

Dispersion correction           -0.031339513
FINAL SINGLE POINT ENERGY      -633.210578508080

DIPOLE MOMENT
-------------
                                X             Y             Z
Electronic contribution:    -15.48645      -0.28718       0.03607
Nuclear contribution   :     16.71745       0.30602      -0.03746
                        -----------------------------------------
Total Dipole Moment    :      1.23100       0.01884      -0.00140
                        -----------------------------------------
Magnitude (a.u.)       :      1.23114
Magnitude (Debye)      :      3.12931

Rotational constants in cm-1:     0.086487     0.019375     0.015877
Rotational constants in MHz :  2592.826697   580.858959   475.992916

                             ****ORCA TERMINATED NORMALLY****
TOTAL RUN TIME: 0 days 0 hours 4 minutes 57 seconds 383 msec
