                         Program Version 4.2.0 -  RELEASE  -
|  1> # ORCA input file
|  2> # SCF done        -50.273283897160          0.000425318859
|  3> ! B3LYP/G D3BJ Opt RIJCOSX def2-SVP def2/J
|  4> * xyz 0 1
|  5>    C        1.36396        -0.07256        -0.54518
|  6>    C        0.42980        -0.16501         0.44596
|  7>    C        0.70653         0.01427         1.81946
|  8>    N        0.86974         0.14382         2.94776
|  9>    C       -0.93608        -0.45758         0.23670
| 10>    N       -2.05550        -0.68768         0.13720
| 11>    C        2.77732         0.22983        -0.37448
| 12>    C        3.42153         0.20303        -1.64685
| 13>    C        4.75793         0.45137        -1.78279
| 14>    C        5.52568         0.74880        -0.63565
| 15>    C        4.88858         0.78443         0.63922
| 16>    C        3.50617         0.51886         0.75163
| 17>    C        5.66361         1.09019         1.77745
| 18>    C        7.00231         1.34745         1.66358
| 19>    C        7.62885         1.30935         0.40831
| 20>    C        6.90672         1.01619        -0.71648
| 21>    C        2.43530        -0.11138        -2.69129
| 22>    O        2.61460        -0.21979        -3.88093
| 23>    C        1.12662        -0.27133        -1.97625
| 24>    C       -0.00035        -0.54317        -2.63769
| 25>    H        5.22235         0.42303        -2.75736
| 26>    H        3.05353         0.55293         1.73005
| 27>    H        5.17698         1.11737         2.74132
| 28>    H        7.58703         1.58175         2.54040
| 29>    H        8.68657         1.51407         0.33764
| 30>    H        7.38340         0.98592        -1.68527
| 31>    H       -0.96143        -0.66037        -2.16960
| 32>    H        0.04758        -0.65136        -3.71005
| 33> *
| 34>
| 35>                          ****END OF INPUT****
 Total Charge           Charge          ....    0
 Multiplicity           Mult            ....    1
 Number of Electrons    NEL             ....  132
Dispersion correction           -0.071937397
FINAL SINGLE POINT ENERGY      -836.762996872353
Dispersion correction            ... done
Dispersion correction           -0.071412685
FINAL SINGLE POINT ENERGY      -836.767850635552
Dispersion correction            ... done
Dispersion correction           -0.071363981
FINAL SINGLE POINT ENERGY      -836.768103749184
Dispersion correction            ... done
FINAL SINGLE POINT ENERGY      -836.768181060948
FINAL SINGLE POINT ENERGY      -836.768222938430
FINAL SINGLE POINT ENERGY      -836.768238752516
Dispersion correction            ... done
Dispersion correction           -0.071423394
FINAL SINGLE POINT ENERGY      -836.768248803329
Dispersion correction            ... done
Dispersion correction           -0.071420341
FINAL SINGLE POINT ENERGY      -836.768256081630
Dispersion correction            ... done
                    ***********************HURRAY********************

CARTESIAN COORDINATES (ANGSTROEM)
---------------------------------
  C      1.327432   -0.069017   -0.522347
  C      0.375339   -0.129714    0.471123
  C      0.659678    0.145254    1.845757
  N      0.864062    0.363521    2.968237
  C     -0.991489   -0.465068    0.215923
  N     -2.106468   -0.734241    0.031782
  C      2.757876    0.250296   -0.351112
  C      3.397541    0.255495   -1.631662
  C      4.735532    0.515861   -1.787953
  C      5.528764    0.781169   -0.641388
  C      4.902791    0.773887    0.656727
  C      3.512208    0.506835    0.781990
  C      5.704880    1.032538    1.802532
  C      7.053921    1.283942    1.676071
  C      7.666614    1.292864    0.397533
  C      6.919745    1.050722   -0.735229
  C      2.410554   -0.065409   -2.684760
  O      2.595259   -0.134183   -3.880184
  C      1.100451   -0.297852   -1.965346
  C      0.004443   -0.653949   -2.657813
  H      5.178935    0.508425   -2.786507
  H      3.075212    0.508391    1.779300
  H      5.228428    1.031229    2.785616
  H      7.657207    1.485679    2.563472
  H      8.734766    1.504272    0.311599
  H      7.387837    1.062223   -1.722574
  H     -0.970131   -0.848184   -2.212687
  H      0.117942   -0.762558   -3.741294

 Multiplicity           Mult            ....    1
 Number of Electrons    NEL             ....  132
 Basis Dimension        Dim             ....  320

ORBITAL ENERGIES
----------------

  NO   OCC          E(Eh)            E(eV)
   0   2.0000     -19.146874      -521.0129
   1   2.0000     -14.352122      -390.5411
   2   2.0000     -14.351418      -390.5219
   3   2.0000     -10.293992      -280.1138
   4   2.0000     -10.282507      -279.8012
   5   2.0000     -10.273843      -279.5655
   6   2.0000     -10.254482      -279.0386
   7   2.0000     -10.253596      -279.0145
   8   2.0000     -10.240132      -278.6482
   9   2.0000     -10.236818      -278.5580
  10   2.0000     -10.234634      -278.4985
  11   2.0000     -10.234438      -278.4932
  12   2.0000     -10.234305      -278.4896
  13   2.0000     -10.232554      -278.4420
  14   2.0000     -10.231029      -278.4005
  15   2.0000     -10.224007      -278.2094
  16   2.0000     -10.223167      -278.1865
  17   2.0000     -10.222988      -278.1817
  18   2.0000     -10.222849      -278.1779
  19   2.0000     -10.222523      -278.1690
  20   2.0000      -1.051882       -28.6232
  21   2.0000      -0.934188       -25.4205
  22   2.0000      -0.916406       -24.9367
  23   2.0000      -0.914188       -24.8763
  24   2.0000      -0.886466       -24.1220
  25   2.0000      -0.842889       -22.9362
  26   2.0000      -0.816061       -22.2061
  27   2.0000      -0.802507       -21.8373
  28   2.0000      -0.779834       -21.2204
  29   2.0000      -0.752005       -20.4631
  30   2.0000      -0.713415       -19.4130
  31   2.0000      -0.684915       -18.6375
  32   2.0000      -0.638977       -17.3875
  33   2.0000      -0.629891       -17.1402
  34   2.0000      -0.615989       -16.7619
  35   2.0000      -0.607460       -16.5298
  36   2.0000      -0.566192       -15.4069
  37   2.0000      -0.543027       -14.7765
  38   2.0000      -0.538023       -14.6404
  39   2.0000      -0.524303       -14.2670
  40   2.0000      -0.487016       -13.2524
  41   2.0000      -0.482237       -13.1223
  42   2.0000      -0.478254       -13.0140
  43   2.0000      -0.467610       -12.7243
  44   2.0000      -0.463509       -12.6127
  45   2.0000      -0.453436       -12.3386
  46   2.0000      -0.449385       -12.2284
  47   2.0000      -0.437728       -11.9112
  48   2.0000      -0.428235       -11.6529
  49   2.0000      -0.420492       -11.4422
  50   2.0000      -0.418137       -11.3781
  51   2.0000      -0.404115       -10.9965
  52   2.0000      -0.387055       -10.5323
  53   2.0000      -0.384119       -10.4524
  54   2.0000      -0.380669       -10.3585
  55   2.0000      -0.374752       -10.1975
  56   2.0000      -0.370813       -10.0903
  57   2.0000      -0.366369        -9.9694
  58   2.0000      -0.359435        -9.7807
  59   2.0000      -0.351524        -9.5654
  60   2.0000      -0.344998        -9.3879
  61   2.0000      -0.322685        -8.7807
  62   2.0000      -0.291682        -7.9371
  63   2.0000      -0.278486        -7.5780
  64   2.0000      -0.272429        -7.4132
  65   2.0000      -0.252623        -6.8742
  66   0.0000      -0.131477        -3.5777
  67   0.0000      -0.102247        -2.7823
  68   0.0000      -0.061896        -1.6843
  69   0.0000      -0.021744        -0.5917
  70   0.0000      -0.019589        -0.5330

MULLIKEN ATOMIC CHARGES
-----------------------
   0 C :    0.277908
   1 C :   -0.296656
   2 C :   -0.136690
   3 N :    0.106073
   4 C :   -0.149726
   5 N :    0.111061
   6 C :    0.052400
   7 C :   -0.005147
   8 C :   -0.073086
   9 C :    0.100294
  10 C :    0.091602
  11 C :   -0.079410
  12 C :   -0.014471
  13 C :    0.040952
  14 C :    0.034984
  15 C :   -0.014630
  16 C :    0.149700
  17 O :   -0.150000
  18 C :   -0.126585
  19 C :    0.012630
  20 H :   -0.011044
  21 H :   -0.006457
  22 H :   -0.007297
  23 H :   -0.002279
  24 H :    0.000982
  25 H :   -0.015326
  26 H :    0.054480
  27 H :    0.055738
Sum of atomic charges:    0.0000000

LOEWDIN ATOMIC CHARGES
----------------------
   0 C :    0.064773
   1 C :   -0.119122
   2 C :   -0.011017
   3 N :   -0.052681
   4 C :   -0.011287
   5 N :   -0.049916
   6 C :   -0.021690
   7 C :   -0.055276
   8 C :    0.032076
   9 C :   -0.005023
  10 C :   -0.003423
  11 C :    0.018886
  12 C :   -0.003367
  13 C :   -0.010209
  14 C :   -0.009020
  15 C :   -0.008054
  16 C :    0.080953
  17 O :   -0.135234
  18 C :   -0.071659
  19 C :    0.068207
  20 H :    0.040300
  21 H :    0.039001
  22 H :    0.035718
  23 H :    0.034517
  24 H :    0.034800
  25 H :    0.033204
  26 H :    0.040033
  27 H :    0.044510

  Mayer bond orders larger than 0.100000
B(  0-C ,  1-C ) :   1.6267 B(  0-C ,  6-C ) :   1.0192 B(  0-C , 18-C ) :   1.0020
B(  1-C ,  2-C ) :   1.1359 B(  1-C ,  4-C ) :   1.1428 B(  2-C ,  3-N ) :   2.9295
B(  4-C ,  5-N ) :   2.9408 B(  6-C ,  7-C ) :   1.2064 B(  6-C , 11-C ) :   1.4043
B(  7-C ,  8-C ) :   1.4357 B(  7-C , 16-C ) :   0.9409 B(  8-C ,  9-C ) :   1.1900
B(  8-C , 20-H ) :   1.0104 B(  9-C , 10-C ) :   1.2254 B(  9-C , 15-C ) :   1.2409
B( 10-C , 11-C ) :   1.2200 B( 10-C , 12-C ) :   1.2362 B( 11-C , 21-H ) :   0.9886
B( 12-C , 13-C ) :   1.4736 B( 12-C , 22-H ) :   0.9922 B( 13-C , 14-C ) :   1.2496
B( 13-C , 23-H ) :   0.9825 B( 14-C , 15-C ) :   1.4747 B( 14-C , 24-H ) :   0.9812
B( 15-C , 25-H ) :   0.9922 B( 16-C , 17-O ) :   2.2273 B( 16-C , 18-C ) :   0.9126
B( 18-C , 19-C ) :   1.9184 B( 19-C , 26-H ) :   0.9191 B( 19-C , 27-H ) :   0.9110

Dispersion correction           -0.071419370
FINAL SINGLE POINT ENERGY      -836.768257275949

DIPOLE MOMENT
-------------
                                X             Y             Z
Electronic contribution:    -10.03673      -1.76285       0.14744
Nuclear contribution   :     12.25975       2.09932      -0.38722
                        -----------------------------------------
Total Dipole Moment    :      2.22302       0.33647      -0.23978
                        -----------------------------------------
Magnitude (a.u.)       :      2.26109
Magnitude (Debye)      :      5.74722

Rotational constants in cm-1:     0.020759     0.008165     0.005863
Rotational constants in MHz :   622.344883   244.788400   175.754956

                             ****ORCA TERMINATED NORMALLY****
TOTAL RUN TIME: 0 days 0 hours 27 minutes 57 seconds 378 msec
