                         Program Version 4.2.0 -  RELEASE  -
|  1> # ORCA input file
|  2> # SCF done        -45.416742159689          0.000540404372
|  3> ! B3LYP/G D3BJ Opt RIJCOSX def2-SVP def2/J
|  4> * xyz 0 1
|  5>    C        3.48967        -0.31992         0.00467
|  6>    C        2.51511        -1.24666         0.00065
|  7>    C        1.20346        -0.68330         0.00004
|  8>    C        1.22377         0.73191         0.00421
|  9>    S        2.88508         1.30094         0.00800
| 10>    C        0.04668         1.46816         0.00445
| 11>    O       -0.11568         2.82033         0.00783
| 12>    C        1.00740         3.66672         0.02591
| 13>    C       -1.14998         0.73244        -0.00017
| 14>    C       -1.17028        -0.68277        -0.00459
| 15>    C        0.00680        -1.41903        -0.00438
| 16>    O        0.16921        -2.77118        -0.00780
| 17>    C       -0.95389        -3.61771        -0.01432
| 18>    S       -2.83160        -1.25183        -0.00910
| 19>    C       -3.43618         0.36901        -0.00517
| 20>    C       -2.46165         1.29577        -0.00073
| 21>    H        4.55191        -0.46547         0.00580
| 22>    H        2.68141        -2.30763        -0.00197
| 23>    H        0.60389         4.67870         0.03049
| 24>    H        1.63168         3.53246        -0.86148
| 25>    H        1.61393         3.51709         0.92319
| 26>    H       -0.55031        -4.62967        -0.01675
| 27>    H       -1.56657        -3.47258        -0.90811
| 28>    H       -1.57210        -3.47911         0.87669
| 29>    H       -4.49842         0.51454        -0.00639
| 30>    H       -2.62795         2.35675         0.00217
| 31> *
| 32>
| 33>                          ****END OF INPUT****
 Total Charge           Charge          ....    0
 Multiplicity           Mult            ....    1
 Number of Electrons    NEL             ....  130
Dispersion correction           -0.064712947
FINAL SINGLE POINT ENERGY     -1409.489339248729
Dispersion correction            ... done
Dispersion correction           -0.064215382
FINAL SINGLE POINT ENERGY     -1409.492652996491
Dispersion correction            ... done
Dispersion correction           -0.064325519
FINAL SINGLE POINT ENERGY     -1409.492926241359
Dispersion correction            ... done
Dispersion correction           -0.064317458
FINAL SINGLE POINT ENERGY     -1409.492938551752
Dispersion correction            ... done
Dispersion correction           -0.064310844
FINAL SINGLE POINT ENERGY     -1409.492927179564
Dispersion correction            ... done
                    ***********************HURRAY********************

CARTESIAN COORDINATES (ANGSTROEM)
---------------------------------
  C      3.519423   -0.342265    0.005869
  C      2.531607   -1.272992    0.002560
  C      1.212174   -0.694972    0.001922
  C      1.241482    0.734270    0.005245
  S      2.921623    1.298476    0.007821
  C      0.048894    1.471336    0.004862
  O     -0.108277    2.822277    0.006446
  C      0.992814    3.702579    0.023478
  C     -1.158665    0.744031    0.001183
  C     -1.187980   -0.685215   -0.002493
  C      0.004614   -1.422277   -0.002142
  O      0.161805   -2.773213   -0.005162
  C     -0.939358   -3.653505   -0.017578
  S     -2.868142   -1.249407   -0.006134
  C     -3.465915    0.391346   -0.002533
  C     -2.478091    1.322063    0.000804
  H      4.595295   -0.515666    0.007242
  H      2.701188   -2.348711    0.000539
  H      0.568538    4.716168    0.027348
  H      1.627647    3.586864   -0.870986
  H      1.610924    3.572817    0.927757
  H     -0.515123   -4.667113   -0.020445
  H     -1.559666   -3.525624   -0.920617
  H     -1.571982   -3.535859    0.878197
  H     -4.541784    0.564768   -0.003435
  H     -2.647655    2.397784    0.003391

 Multiplicity           Mult            ....    1
 Number of Electrons    NEL             ....  130
 Basis Dimension        Dim             ....  282

ORBITAL ENERGIES
----------------

  NO   OCC          E(Eh)            E(eV)
   0   2.0000     -88.867804     -2418.2159
   1   2.0000     -88.867766     -2418.2149
   2   2.0000     -19.164966      -521.5052
   3   2.0000     -19.164955      -521.5049
   4   2.0000     -10.252234      -278.9775
   5   2.0000     -10.252129      -278.9746
   6   2.0000     -10.246817      -278.8301
   7   2.0000     -10.246812      -278.8299
   8   2.0000     -10.218031      -278.0468
   9   2.0000     -10.217934      -278.0441
  10   2.0000     -10.211497      -277.8690
  11   2.0000     -10.211497      -277.8690
  12   2.0000     -10.194929      -277.4181
  13   2.0000     -10.194842      -277.4158
  14   2.0000     -10.190367      -277.2940
  15   2.0000     -10.190328      -277.2929
  16   2.0000      -7.962058      -216.6586
  17   2.0000      -7.962034      -216.6580
  18   2.0000      -5.930836      -161.3862
  19   2.0000      -5.930829      -161.3861
  20   2.0000      -5.926518      -161.2688
  21   2.0000      -5.926516      -161.2687
  22   2.0000      -5.922332      -161.1549
  23   2.0000      -5.922331      -161.1548
  24   2.0000      -1.059768       -28.8377
  25   2.0000      -1.058880       -28.8136
  26   2.0000      -0.887172       -24.1412
  27   2.0000      -0.866028       -23.5658
  28   2.0000      -0.801226       -21.8025
  29   2.0000      -0.777124       -21.1466
  30   2.0000      -0.737034       -20.0557
  31   2.0000      -0.715486       -19.4694
  32   2.0000      -0.708988       -19.2926
  33   2.0000      -0.708591       -19.2817
  34   2.0000      -0.652858       -17.7652
  35   2.0000      -0.610487       -16.6122
  36   2.0000      -0.581688       -15.8285
  37   2.0000      -0.568704       -15.4752
  38   2.0000      -0.545578       -14.8459
  39   2.0000      -0.538270       -14.6471
  40   2.0000      -0.520502       -14.1636
  41   2.0000      -0.501724       -13.6526
  42   2.0000      -0.476602       -12.9690
  43   2.0000      -0.471775       -12.8376
  44   2.0000      -0.454471       -12.3668
  45   2.0000      -0.451260       -12.2794
  46   2.0000      -0.450252       -12.2520
  47   2.0000      -0.439760       -11.9665
  48   2.0000      -0.411113       -11.1870
  49   2.0000      -0.409100       -11.1322
  50   2.0000      -0.405172       -11.0253
  51   2.0000      -0.380647       -10.3579
  52   2.0000      -0.375854       -10.2275
  53   2.0000      -0.373742       -10.1700
  54   2.0000      -0.361759        -9.8440
  55   2.0000      -0.357414        -9.7257
  56   2.0000      -0.340569        -9.2674
  57   2.0000      -0.337132        -9.1738
  58   2.0000      -0.333408        -9.0725
  59   2.0000      -0.325795        -8.8653
  60   2.0000      -0.276228        -7.5165
  61   2.0000      -0.264928        -7.2091
  62   2.0000      -0.251707        -6.8493
  63   2.0000      -0.231707        -6.3051
  64   2.0000      -0.176858        -4.8125
  65   0.0000      -0.036638        -0.9970
  66   0.0000       0.005944         0.1618
  67   0.0000       0.016668         0.4535
  68   0.0000       0.030704         0.8355
  69   0.0000       0.040142         1.0923

MULLIKEN ATOMIC CHARGES
-----------------------
   0 C :   -0.054240
   1 C :    0.019299
   2 C :    0.030185
   3 C :   -0.128480
   4 S :    0.064880
   5 C :    0.106792
   6 O :   -0.326193
   7 C :    0.180323
   8 C :    0.030155
   9 C :   -0.128495
  10 C :    0.106787
  11 O :   -0.326190
  12 C :    0.180320
  13 S :    0.064888
  14 C :   -0.054245
  15 C :    0.019315
  16 H :    0.027180
  17 H :   -0.010122
  18 H :    0.031043
  19 H :    0.029976
  20 H :    0.029371
  21 H :    0.031044
  22 H :    0.029452
  23 H :    0.029898
  24 H :    0.027180
  25 H :   -0.010123
Sum of atomic charges:   -0.0000000

LOEWDIN ATOMIC CHARGES
----------------------
   0 C :   -0.175225
   1 C :   -0.050866
   2 C :   -0.063976
   3 C :   -0.187218
   4 S :    0.378401
   5 C :    0.023811
   6 O :   -0.105379
   7 C :    0.071319
   8 C :   -0.063976
   9 C :   -0.187215
  10 C :    0.023815
  11 O :   -0.105378
  12 C :    0.071319
  13 S :    0.378395
  14 C :   -0.175224
  15 C :   -0.050866
  16 H :    0.025890
  17 H :    0.033593
  18 H :    0.027615
  19 H :    0.010911
  20 H :    0.011122
  21 H :    0.027616
  22 H :    0.011091
  23 H :    0.010941
  24 H :    0.025890
  25 H :    0.033593

  Mayer bond orders larger than 0.100000
B(  0-C ,  1-C ) :   1.6098 B(  0-C ,  4-S ) :   1.0882 B(  0-C , 16-H ) :   0.9639
B(  1-C ,  2-C ) :   1.1820 B(  1-C , 17-H ) :   0.9953 B(  2-C ,  3-C ) :   1.3080
B(  2-C , 10-C ) :   1.3123 B(  3-C ,  4-S ) :   1.0204 B(  3-C ,  5-C ) :   1.3620
B(  5-C ,  6-O ) :   1.1879 B(  5-C ,  8-C ) :   1.3122 B(  6-O ,  7-C ) :   0.9496
B(  7-C , 18-H ) :   0.9752 B(  7-C , 19-H ) :   0.9649 B(  7-C , 20-H ) :   0.9650
B(  8-C ,  9-C ) :   1.3079 B(  8-C , 15-C ) :   1.1820 B(  9-C , 10-C ) :   1.3620
B(  9-C , 13-S ) :   1.0205 B( 10-C , 11-O ) :   1.1879 B( 11-O , 12-C ) :   0.9496
B( 12-C , 21-H ) :   0.9752 B( 12-C , 22-H ) :   0.9650 B( 12-C , 23-H ) :   0.9649
B( 13-S , 14-C ) :   1.0881 B( 14-C , 15-C ) :   1.6098 B( 14-C , 24-H ) :   0.9639
B( 15-C , 25-H ) :   0.9953

Dispersion correction           -0.064308715
FINAL SINGLE POINT ENERGY     -1409.492922926180

DIPOLE MOMENT
-------------
                                X             Y             Z
Electronic contribution:      0.00008      -0.00010      -0.01157
Nuclear contribution   :     -0.00010       0.00009       0.01378
                        -----------------------------------------
Total Dipole Moment    :     -0.00002      -0.00002       0.00222
                        -----------------------------------------
Magnitude (a.u.)       :      0.00222
Magnitude (Debye)      :      0.00564

Rotational constants in cm-1:     0.021510     0.013287     0.008240
Rotational constants in MHz :   644.867529   398.325720   247.017446

                             ****ORCA TERMINATED NORMALLY****
TOTAL RUN TIME: 0 days 0 hours 11 minutes 16 seconds 508 msec
