                         Program Version 4.2.0 -  RELEASE  -
|  1> # ORCA input file
|  2> # SCF done        -54.501302367372          0.000954061371
|  3> ! B3LYP/G D3BJ Opt RIJCOSX def2-SVP def2/J
|  4> * xyz 0 1
|  5>    C       -0.62645        -0.91897         0.99266
|  6>    C       -1.95163        -0.58413         1.01109
|  7>    F       -2.75737        -1.12246         1.94224
|  8>    C       -2.51469         0.30921         0.08807
|  9>    C       -1.71221         0.86832        -0.86661
| 10>    C       -0.33773         0.55850        -0.93202
| 11>    C        0.21614        -0.35266         0.01528
| 12>    C        1.58985        -0.67939        -0.02935
| 13>    C        2.38899        -0.11378        -0.99041
| 14>    C        1.82733         0.79562        -1.93369
| 15>    C        0.50229         1.12852        -1.91259
| 16>    C        2.87611         1.26080        -2.85548
| 17>    O        2.77163         2.03845        -3.77315
| 18>    C        4.13068         0.56178        -2.42472
| 19>    C        3.81277        -0.26586        -1.25959
| 20>    C        4.69319        -1.02800        -0.54878
| 21>    C        4.34147        -1.81835         0.56846
| 22>    N        4.11689        -2.48148         1.47721
| 23>    C        6.07494        -1.12778        -0.82800
| 24>    N        7.20316        -1.25077        -0.99597
| 25>    C        5.28089         0.72499        -3.08238
| 26>    H       -0.22721        -1.60977         1.71881
| 27>    H       -3.56732         0.53485         0.15219
| 28>    H       -2.12276         1.55872        -1.58778
| 29>    H        1.97792        -1.37268         0.69961
| 30>    H        0.10199         1.82061        -2.63815
| 31>    H        5.29587         1.38723        -3.93392
| 32>    H        6.20097         0.23418        -2.81952
| 33> *
| 34>
| 35>                          ****END OF INPUT****
 Total Charge           Charge          ....    0
 Multiplicity           Mult            ....    1
 Number of Electrons    NEL             ....  140
Dispersion correction           -0.072258115
FINAL SINGLE POINT ENERGY      -935.921818033734
Dispersion correction            ... done
Dispersion correction           -0.071766773
FINAL SINGLE POINT ENERGY      -935.926380172744
Dispersion correction            ... done
Dispersion correction           -0.071723602
FINAL SINGLE POINT ENERGY      -935.926585414671
Dispersion correction            ... done
FINAL SINGLE POINT ENERGY      -935.926565828574
FINAL SINGLE POINT ENERGY      -935.926648053471
FINAL SINGLE POINT ENERGY      -935.926706441155
FINAL SINGLE POINT ENERGY      -935.926731672045
Dispersion correction            ... done
Dispersion correction           -0.071807131
FINAL SINGLE POINT ENERGY      -935.926732260912
Dispersion correction            ... done
Dispersion correction           -0.071805770
FINAL SINGLE POINT ENERGY      -935.926737219655
Dispersion correction            ... done
                    ***********************HURRAY********************

CARTESIAN COORDINATES (ANGSTROEM)
---------------------------------
  C     -0.642887   -0.885340    1.042452
  C     -1.968884   -0.522991    1.066900
  F     -2.763075   -0.984421    2.036225
  C     -2.537292    0.335469    0.097449
  C     -1.739529    0.838095   -0.905890
  C     -0.355942    0.515066   -0.969715
  C      0.202940   -0.368635    0.024541
  C      1.586550   -0.700079   -0.007564
  C      2.397570   -0.152416   -0.987299
  C      1.828898    0.729891   -1.960578
  C      0.493939    1.053757   -1.969719
  C      2.885269    1.212612   -2.876247
  O      2.768321    1.972390   -3.812407
  C      4.170204    0.575688   -2.398346
  C      3.844522   -0.294749   -1.247953
  C      4.724431   -1.098526   -0.558700
  C      4.331001   -1.917283    0.547051
  N      4.022912   -2.589330    1.443001
  C      6.110187   -1.190183   -0.902524
  N      7.236602   -1.267264   -1.176237
  C      5.333092    0.869726   -3.007121
  H     -0.248279   -1.549531    1.813185
  H     -3.596594    0.587443    0.172532
  H     -2.161936    1.500186   -1.665172
  H      1.972618   -1.370010    0.758481
  H      0.102785    1.726265   -2.736999
  H      5.288414    1.567527   -3.849389
  H      6.299874    0.462345   -2.716448

 Multiplicity           Mult            ....    1
 Number of Electrons    NEL             ....  140
 Basis Dimension        Dim             ....  329

ORBITAL ENERGIES
----------------

  NO   OCC          E(Eh)            E(eV)
   0   2.0000     -24.723711      -672.7664
   1   2.0000     -19.148617      -521.0604
   2   2.0000     -14.355293      -390.6274
   3   2.0000     -14.354516      -390.6062
   4   2.0000     -10.305743      -280.4335
   5   2.0000     -10.296258      -280.1754
   6   2.0000     -10.286150      -279.9004
   7   2.0000     -10.276952      -279.6501
   8   2.0000     -10.257524      -279.1214
   9   2.0000     -10.256582      -279.0958
  10   2.0000     -10.244602      -278.7698
  11   2.0000     -10.244398      -278.7642
  12   2.0000     -10.240057      -278.6461
  13   2.0000     -10.239003      -278.6174
  14   2.0000     -10.236700      -278.5548
  15   2.0000     -10.236335      -278.5448
  16   2.0000     -10.235920      -278.5335
  17   2.0000     -10.235286      -278.5163
  18   2.0000     -10.232667      -278.4450
  19   2.0000     -10.227214      -278.2966
  20   2.0000     -10.226053      -278.2651
  21   2.0000      -1.235622       -33.6230
  22   2.0000      -1.054053       -28.6822
  23   2.0000      -0.937283       -25.5048
  24   2.0000      -0.919597       -25.0235
  25   2.0000      -0.918595       -24.9962
  26   2.0000      -0.893121       -24.3031
  27   2.0000      -0.848295       -23.0833
  28   2.0000      -0.820129       -22.3168
  29   2.0000      -0.809051       -22.0154
  30   2.0000      -0.784202       -21.3392
  31   2.0000      -0.759945       -20.6792
  32   2.0000      -0.718988       -19.5646
  33   2.0000      -0.688499       -18.7350
  34   2.0000      -0.653576       -17.7847
  35   2.0000      -0.638754       -17.3814
  36   2.0000      -0.622346       -16.9349
  37   2.0000      -0.614145       -16.7117
  38   2.0000      -0.576407       -15.6848
  39   2.0000      -0.565359       -15.3842
  40   2.0000      -0.556399       -15.1404
  41   2.0000      -0.529931       -14.4202
  42   2.0000      -0.511304       -13.9133
  43   2.0000      -0.503650       -13.7050
  44   2.0000      -0.496742       -13.5170
  45   2.0000      -0.489195       -13.3117
  46   2.0000      -0.483776       -13.1642
  47   2.0000      -0.466257       -12.6875
  48   2.0000      -0.462726       -12.5914
  49   2.0000      -0.459594       -12.5062
  50   2.0000      -0.447622       -12.1804
  51   2.0000      -0.439217       -11.9517
  52   2.0000      -0.430680       -11.7194
  53   2.0000      -0.426542       -11.6068
  54   2.0000      -0.418398       -11.3852
  55   2.0000      -0.406652       -11.0656
  56   2.0000      -0.399629       -10.8745
  57   2.0000      -0.389869       -10.6089
  58   2.0000      -0.384640       -10.4666
  59   2.0000      -0.380192       -10.3455
  60   2.0000      -0.371703       -10.1146
  61   2.0000      -0.369300       -10.0492
  62   2.0000      -0.362755        -9.8711
  63   2.0000      -0.354771        -9.6538
  64   2.0000      -0.344045        -9.3619
  65   2.0000      -0.328271        -8.9327
  66   2.0000      -0.294340        -8.0094
  67   2.0000      -0.280737        -7.6392
  68   2.0000      -0.272381        -7.4119
  69   2.0000      -0.257157        -6.9976
  70   0.0000      -0.134967        -3.6726
  71   0.0000      -0.104043        -2.8312
  72   0.0000      -0.067704        -1.8423
  73   0.0000      -0.024225        -0.6592
  74   0.0000      -0.020690        -0.5630

MULLIKEN ATOMIC CHARGES
-----------------------
   0 C :   -0.100097
   1 C :    0.307171
   2 F :   -0.181957
   3 C :   -0.024893
   4 C :   -0.012108
   5 C :    0.109215
   6 C :    0.100304
   7 C :   -0.087578
   8 C :    0.059280
   9 C :   -0.008124
  10 C :   -0.072216
  11 C :    0.148129
  12 O :   -0.149046
  13 C :   -0.123873
  14 C :    0.272010
  15 C :   -0.290052
  16 C :   -0.130384
  17 N :    0.102247
  18 C :   -0.150799
  19 N :    0.113149
  20 C :    0.013975
  21 H :    0.003152
  22 H :    0.007219
  23 H :   -0.004441
  24 H :   -0.003519
  25 H :   -0.008274
  26 H :    0.056369
  27 H :    0.055142
Sum of atomic charges:    0.0000000

LOEWDIN ATOMIC CHARGES
----------------------
   0 C :   -0.039985
   1 C :    0.090391
   2 F :   -0.051405
   3 C :   -0.031897
   4 C :    0.004122
   5 C :   -0.013026
   6 C :    0.005002
   7 C :    0.014157
   8 C :   -0.017070
   9 C :   -0.057812
  10 C :    0.033806
  11 C :    0.080162
  12 O :   -0.135248
  13 C :   -0.071989
  14 C :    0.065010
  15 C :   -0.116872
  16 C :   -0.010021
  17 N :   -0.050736
  18 C :   -0.010743
  19 N :   -0.047819
  20 C :    0.070277
  21 H :    0.044965
  22 H :    0.043498
  23 H :    0.037505
  24 H :    0.039709
  25 H :    0.041398
  26 H :    0.044669
  27 H :    0.039952

  Mayer bond orders larger than 0.100000
B(  0-C ,  1-C ) :   1.4235 B(  0-C ,  6-C ) :   1.1998 B(  0-C , 21-H ) :   0.9992
B(  1-C ,  2-F ) :   1.0849 B(  1-C ,  3-C ) :   1.2444 B(  3-C ,  4-C ) :   1.4466
B(  3-C , 22-H ) :   0.9841 B(  4-C ,  5-C ) :   1.2298 B(  4-C , 23-H ) :   0.9906
B(  5-C ,  6-C ) :   1.2218 B(  5-C , 10-C ) :   1.2005 B(  6-C ,  7-C ) :   1.2226
B(  7-C ,  8-C ) :   1.4064 B(  7-C , 24-H ) :   0.9877 B(  8-C ,  9-C ) :   1.2085
B(  8-C , 14-C ) :   1.0207 B(  9-C , 10-C ) :   1.4336 B(  9-C , 11-C ) :   0.9406
B( 10-C , 25-H ) :   1.0074 B( 11-C , 12-O ) :   2.2277 B( 11-C , 13-C ) :   0.9138
B( 13-C , 14-C ) :   1.0026 B( 13-C , 20-C ) :   1.9095 B( 14-C , 15-C ) :   1.6314
B( 15-C , 16-C ) :   1.1301 B( 15-C , 18-C ) :   1.1429 B( 16-C , 17-N ) :   2.9255
B( 18-C , 19-N ) :   2.9410 B( 20-C , 26-H ) :   0.9126 B( 20-C , 27-H ) :   0.9206

Dispersion correction           -0.071805257
FINAL SINGLE POINT ENERGY      -935.926739860174

DIPOLE MOMENT
-------------
                                X             Y             Z
Electronic contribution:     -0.75881      -3.88915       5.05291
Nuclear contribution   :     -1.01179       4.70124      -5.37611
                        -----------------------------------------
Total Dipole Moment    :     -1.77060       0.81209      -0.32321
                        -----------------------------------------
Magnitude (a.u.)       :      1.97458
Magnitude (Debye)      :      5.01899

Rotational constants in cm-1:     0.019133     0.006543     0.004878
Rotational constants in MHz :   573.589366   196.145470   146.247241

                             ****ORCA TERMINATED NORMALLY****
TOTAL RUN TIME: 0 days 0 hours 31 minutes 47 seconds 707 msec
