                         Program Version 4.2.0 -  RELEASE  -
|  1> # ORCA input file
|  2> # SCF done        -34.748929291311          0.000946788910
|  3> ! B3LYP/G D3BJ Opt RIJCOSX def2-SVP def2/J
|  4> * xyz 0 1
|  5>    C       -1.35540         0.16623         0.26152
|  6>    C       -0.53286         1.19021        -0.07599
|  7>    C        0.81121         0.77655        -0.18659
|  8>   Cl        2.06950         1.86633        -0.60121
|  9>    C        1.01136        -0.56401         0.06488
| 10>    S       -0.51244        -1.31654         0.44865
| 11>    C        2.23001        -1.30627         0.03461
| 12>    C        2.42879        -2.64866         0.27726
| 13>   Cl        1.17008        -3.73885         0.69147
| 14>    C        3.77115        -3.06471         0.15468
| 15>    C        4.59384        -2.04067        -0.18030
| 16>    S        3.75347        -0.55442        -0.35211
| 17>    H       -2.41602         0.18837         0.41160
| 18>    H       -0.84996         2.20247        -0.24215
| 19>    H        4.08685        -4.07876         0.31192
| 20>    H        5.65282        -2.06513        -0.34049
| 21> *
| 22>
| 23>                          ****END OF INPUT****
 Total Charge           Charge          ....    0
 Multiplicity           Mult            ....    1
 Number of Electrons    NEL             ....  118
Dispersion correction           -0.049519265
FINAL SINGLE POINT ENERGY     -2023.352249958681
Dispersion correction            ... done
Dispersion correction           -0.048902362
FINAL SINGLE POINT ENERGY     -2023.356663987698
Dispersion correction            ... done
Dispersion correction           -0.048942690
FINAL SINGLE POINT ENERGY     -2023.356843048458
Dispersion correction            ... done
FINAL SINGLE POINT ENERGY     -2023.356844871671
Dispersion correction            ... done
Dispersion correction           -0.048947552
FINAL SINGLE POINT ENERGY     -2023.356873820674
Dispersion correction            ... done
Dispersion correction           -0.048941735
FINAL SINGLE POINT ENERGY     -2023.356874067832
Dispersion correction            ... done
                    ***********************HURRAY********************

CARTESIAN COORDINATES (ANGSTROEM)
---------------------------------
  C     -1.397729    0.192108    0.262577
  C     -0.566504    1.223353   -0.074375
  C      0.786683    0.796151   -0.188282
  Cl     2.026356    1.935279   -0.610148
  C      1.001604   -0.555381    0.060558
  S     -0.550134   -1.299900    0.448303
  C      2.237506   -1.318008    0.024595
  C      2.452080   -2.670016    0.271164
  Cl     1.211995   -3.809674    0.690425
  C      3.805417   -3.097013    0.158189
  C      4.637155   -2.065080   -0.175349
  S      3.789564   -0.573053   -0.361093
  H     -2.473873    0.226944    0.425608
  H     -0.882066    2.251423   -0.246782
  H      4.120795   -4.125389    0.329135
  H      5.713553   -2.099602   -0.336774

 Multiplicity           Mult            ....    1
 Number of Electrons    NEL             ....  118
 Basis Dimension        Dim             ....  204

ORBITAL ENERGIES
----------------

  NO   OCC          E(Eh)            E(eV)
   0   2.0000    -101.517040     -2762.4191
   1   2.0000    -101.517037     -2762.4190
   2   2.0000     -88.884788     -2418.6780
   3   2.0000     -88.884786     -2418.6780
   4   2.0000     -10.251100      -278.9466
   5   2.0000     -10.251063      -278.9456
   6   2.0000     -10.241991      -278.6987
   7   2.0000     -10.241842      -278.6947
   8   2.0000     -10.222658      -278.1727
   9   2.0000     -10.222657      -278.1726
  10   2.0000     -10.207043      -277.7477
  11   2.0000     -10.207039      -277.7477
  12   2.0000      -9.470685      -257.7104
  13   2.0000      -9.470683      -257.7104
  14   2.0000      -7.979077      -217.1217
  15   2.0000      -7.979070      -217.1215
  16   2.0000      -7.239747      -197.0035
  17   2.0000      -7.239745      -197.0035
  18   2.0000      -7.229831      -196.7337
  19   2.0000      -7.229829      -196.7337
  20   2.0000      -7.229754      -196.7316
  21   2.0000      -7.229751      -196.7315
  22   2.0000      -5.947483      -161.8392
  23   2.0000      -5.947478      -161.8391
  24   2.0000      -5.943150      -161.7213
  25   2.0000      -5.943140      -161.7211
  26   2.0000      -5.940001      -161.6357
  27   2.0000      -5.939997      -161.6355
  28   2.0000      -0.918789       -25.0015
  29   2.0000      -0.899140       -24.4669
  30   2.0000      -0.856526       -23.3073
  31   2.0000      -0.850695       -23.1486
  32   2.0000      -0.773051       -21.0358
  33   2.0000      -0.730143       -19.8682
  34   2.0000      -0.724317       -19.7097
  35   2.0000      -0.699814       -19.0429
  36   2.0000      -0.604897       -16.4601
  37   2.0000      -0.590074       -16.0567
  38   2.0000      -0.552284       -15.0284
  39   2.0000      -0.528540       -14.3823
  40   2.0000      -0.515844       -14.0368
  41   2.0000      -0.487600       -13.2683
  42   2.0000      -0.435278       -11.8445
  43   2.0000      -0.433648       -11.8001
  44   2.0000      -0.429928       -11.6989
  45   2.0000      -0.427373       -11.6294
  46   2.0000      -0.422832       -11.5058
  47   2.0000      -0.398956       -10.8561
  48   2.0000      -0.390374       -10.6226
  49   2.0000      -0.370855       -10.0915
  50   2.0000      -0.363840        -9.9006
  51   2.0000      -0.347912        -9.4672
  52   2.0000      -0.340167        -9.2564
  53   2.0000      -0.315275        -8.5791
  54   2.0000      -0.304352        -8.2818
  55   2.0000      -0.293208        -7.9786
  56   2.0000      -0.257144        -6.9972
  57   2.0000      -0.253847        -6.9075
  58   2.0000      -0.215203        -5.8560
  59   0.0000      -0.060271        -1.6401
  60   0.0000      -0.000757        -0.0206
  61   0.0000       0.013271         0.3611
  62   0.0000       0.024882         0.6771
  63   0.0000       0.037576         1.0225

MULLIKEN ATOMIC CHARGES
-----------------------
   0 C :   -0.069418
   1 C :    0.059312
   2 C :    0.033917
   3 Cl:   -0.083496
   4 C :   -0.105388
   5 S :    0.137488
   6 C :   -0.105382
   7 C :    0.033888
   8 Cl:   -0.083484
   9 C :    0.059304
  10 C :   -0.069461
  11 S :    0.137480
  12 H :    0.038301
  13 H :   -0.010703
  14 H :   -0.010683
  15 H :    0.038327
Sum of atomic charges:   -0.0000000

LOEWDIN ATOMIC CHARGES
----------------------
   0 C :   -0.186288
   1 C :   -0.076753
   2 C :   -0.168707
   3 Cl:    0.133958
   4 C :   -0.207958
   5 S :    0.441957
   6 C :   -0.207950
   7 C :   -0.168710
   8 Cl:    0.133951
   9 C :   -0.076752
  10 C :   -0.186294
  11 S :    0.441947
  12 H :    0.029899
  13 H :    0.033898
  14 H :    0.033901
  15 H :    0.029902

  Mayer bond orders larger than 0.100000
B(  0-C ,  1-C ) :   1.5417 B(  0-C ,  5-S ) :   1.1484 B(  0-C , 12-H ) :   0.9630
B(  1-C ,  2-C ) :   1.2638 B(  1-C , 13-H ) :   0.9912 B(  2-C ,  3-Cl) :   1.0153
B(  2-C ,  4-C ) :   1.4831 B(  4-C ,  5-S ) :   1.1278 B(  4-C ,  6-C ) :   1.1773
B(  6-C ,  7-C ) :   1.4831 B(  6-C , 11-S ) :   1.1278 B(  7-C ,  8-Cl) :   1.0153
B(  7-C ,  9-C ) :   1.2638 B(  9-C , 10-C ) :   1.5417 B(  9-C , 14-H ) :   0.9912
B( 10-C , 11-S ) :   1.1484 B( 10-C , 15-H ) :   0.9630

Dispersion correction           -0.048939929
FINAL SINGLE POINT ENERGY     -2023.356873243422

DIPOLE MOMENT
-------------
                                X             Y             Z
Electronic contribution:     -0.00121      -0.00149      -0.00742
Nuclear contribution   :      0.00127       0.00159       0.00785
                        -----------------------------------------
Total Dipole Moment    :      0.00006       0.00010       0.00042
                        -----------------------------------------
Magnitude (a.u.)       :      0.00044
Magnitude (Debye)      :      0.00111

Rotational constants in cm-1:     0.025085     0.018202     0.010548
Rotational constants in MHz :   752.031794   545.678073   316.225013

                             ****ORCA TERMINATED NORMALLY****
TOTAL RUN TIME: 0 days 0 hours 6 minutes 16 seconds 331 msec
