                         Program Version 4.2.0 -  RELEASE  -
|  1> # ORCA input file
|  2> # SCF done        -58.720902191961          0.000533945946
|  3> ! B3LYP/G D3BJ Opt RIJCOSX def2-SVP def2/J
|  4> * xyz 0 1
|  5>    C        0.57838         1.63669         0.08501
|  6>    C        1.92885         1.48815        -0.05894
|  7>    F        2.72414         2.56356        -0.09780
|  8>    C        2.50280         0.20416        -0.16806
|  9>    F        3.82896         0.09040        -0.30769
| 10>    C        1.71723        -0.91344        -0.13157
| 11>    C        0.32136        -0.79370         0.01705
| 12>    C       -0.26028         0.50361         0.12730
| 13>    C       -1.65662         0.64798         0.27866
| 14>    C       -2.45166        -0.47006         0.32108
| 15>    C       -1.86149        -1.76214         0.21072
| 16>    C       -0.51390        -1.93086         0.06145
| 17>    C       -2.91223        -2.79279         0.28869
| 18>    O       -2.78481        -3.99104         0.22736
| 19>    C       -4.19843        -2.04410         0.46683
| 20>    C       -3.89414        -0.61192         0.47451
| 21>    C       -4.79727         0.40277         0.59876
| 22>    C       -6.19104         0.22258         0.74894
| 23>    N       -7.32874         0.14891         0.87334
| 24>    C       -4.45862         1.77477         0.59024
| 25>    N       -4.24162         2.90110         0.58610
| 26>    C       -5.36429        -2.68242         0.59202
| 27>    H        0.15578         2.62593         0.16683
| 28>    H        2.17132        -1.88829        -0.21617
| 29>    H       -2.06556         1.64213         0.36030
| 30>    H       -0.09307        -2.92150        -0.02043
| 31>    H       -5.36516        -3.76069         0.55628
| 32>    H       -6.31098        -2.18953         0.72361
| 33> *
| 34>
| 35>                          ****END OF INPUT****
 Total Charge           Charge          ....    0
 Multiplicity           Mult            ....    1
 Number of Electrons    NEL             ....  148
Dispersion correction           -0.072617888
FINAL SINGLE POINT ENERGY     -1035.074020546584
Dispersion correction            ... done
Dispersion correction           -0.072168027
FINAL SINGLE POINT ENERGY     -1035.078506777736
Dispersion correction            ... done
Dispersion correction           -0.072121099
FINAL SINGLE POINT ENERGY     -1035.078793137701
Dispersion correction            ... done
FINAL SINGLE POINT ENERGY     -1035.078881158463
FINAL SINGLE POINT ENERGY     -1035.078911042426
FINAL SINGLE POINT ENERGY     -1035.078953565592
FINAL SINGLE POINT ENERGY     -1035.078970958297
Dispersion correction            ... done
Dispersion correction           -0.072192151
FINAL SINGLE POINT ENERGY     -1035.078986522746
Dispersion correction            ... done
Dispersion correction           -0.072194467
FINAL SINGLE POINT ENERGY     -1035.078991351002
Dispersion correction            ... done
                    ***********************HURRAY********************

CARTESIAN COORDINATES (ANGSTROEM)
---------------------------------
  C      0.593656    1.651490    0.058059
  C      1.946899    1.498307   -0.088167
  F      2.758117    2.549473   -0.149344
  C      2.524389    0.203176   -0.180333
  F      3.842421    0.128470   -0.332472
  C      1.742766   -0.923832   -0.118160
  C      0.334625   -0.804430    0.033927
  C     -0.250876    0.509615    0.121821
  C     -1.653057    0.664240    0.270014
  C     -2.463187   -0.456882    0.329469
  C     -1.869953   -1.754833    0.240227
  C     -0.516010   -1.939490    0.097800
  C     -2.926594   -2.790268    0.321097
  O     -2.791278   -3.993191    0.285335
  C     -4.232503   -2.038417    0.457903
  C     -3.924377   -0.592562    0.478612
  C     -4.829749    0.435347    0.621430
  C     -6.234740    0.215020    0.772618
  N     -7.378427    0.054364    0.897025
  C     -4.447330    1.814342    0.642485
  N     -4.155075    2.938631    0.660601
  C     -5.396534   -2.707580    0.528024
  H      0.173856    2.656133    0.125429
  H      2.213996   -1.905428   -0.193601
  H     -2.054215    1.673322    0.334461
  H     -0.108543   -2.951017    0.032046
  H     -5.346867   -3.800563    0.487654
  H     -6.372500   -2.233176    0.620461

 Multiplicity           Mult            ....    1
 Number of Electrons    NEL             ....  148
 Basis Dimension        Dim             ....  338

ORBITAL ENERGIES
----------------

  NO   OCC          E(Eh)            E(eV)
   0   2.0000     -24.736420      -673.1122
   1   2.0000     -24.734911      -673.0712
   2   2.0000     -19.152562      -521.1677
   3   2.0000     -14.357230      -390.6801
   4   2.0000     -14.355960      -390.6455
   5   2.0000     -10.316862      -280.7361
   6   2.0000     -10.315399      -280.6963
   7   2.0000     -10.300125      -280.2806
   8   2.0000     -10.288060      -279.9523
   9   2.0000     -10.279102      -279.7086
  10   2.0000     -10.259554      -279.1767
  11   2.0000     -10.258010      -279.1346
  12   2.0000     -10.249405      -278.9005
  13   2.0000     -10.248610      -278.8789
  14   2.0000     -10.246770      -278.8288
  15   2.0000     -10.241883      -278.6958
  16   2.0000     -10.239721      -278.6370
  17   2.0000     -10.239531      -278.6318
  18   2.0000     -10.239434      -278.6292
  19   2.0000     -10.238653      -278.6079
  20   2.0000     -10.237210      -278.5686
  21   2.0000     -10.230631      -278.3896
  22   2.0000      -1.256633       -34.1947
  23   2.0000      -1.241089       -33.7717
  24   2.0000      -1.057729       -28.7823
  25   2.0000      -0.939615       -25.5682
  26   2.0000      -0.923947       -25.1419
  27   2.0000      -0.921142       -25.0655
  28   2.0000      -0.899622       -24.4800
  29   2.0000      -0.853410       -23.2225
  30   2.0000      -0.823592       -22.4111
  31   2.0000      -0.815821       -22.1996
  32   2.0000      -0.788247       -21.4493
  33   2.0000      -0.767473       -20.8840
  34   2.0000      -0.723528       -19.6882
  35   2.0000      -0.695223       -18.9180
  36   2.0000      -0.667246       -18.1567
  37   2.0000      -0.648755       -17.6535
  38   2.0000      -0.627812       -17.0836
  39   2.0000      -0.617638       -16.8068
  40   2.0000      -0.593948       -16.1621
  41   2.0000      -0.582715       -15.8565
  42   2.0000      -0.572016       -15.5653
  43   2.0000      -0.551692       -15.0123
  44   2.0000      -0.526371       -14.3233
  45   2.0000      -0.523530       -14.2460
  46   2.0000      -0.518111       -14.0985
  47   2.0000      -0.509817       -13.8728
  48   2.0000      -0.492073       -13.3900
  49   2.0000      -0.487685       -13.2706
  50   2.0000      -0.477156       -12.9841
  51   2.0000      -0.469436       -12.7740
  52   2.0000      -0.469316       -12.7707
  53   2.0000      -0.460619       -12.5341
  54   2.0000      -0.451805       -12.2942
  55   2.0000      -0.447663       -12.1815
  56   2.0000      -0.433068       -11.7844
  57   2.0000      -0.430095       -11.7035
  58   2.0000      -0.421685       -11.4746
  59   2.0000      -0.409796       -11.1511
  60   2.0000      -0.403436       -10.9781
  61   2.0000      -0.391816       -10.6619
  62   2.0000      -0.389243       -10.5918
  63   2.0000      -0.386216       -10.5095
  64   2.0000      -0.372800       -10.1444
  65   2.0000      -0.371053       -10.0969
  66   2.0000      -0.365889        -9.9563
  67   2.0000      -0.356691        -9.7060
  68   2.0000      -0.345122        -9.3912
  69   2.0000      -0.332508        -9.0480
  70   2.0000      -0.293511        -7.9868
  71   2.0000      -0.284131        -7.7316
  72   2.0000      -0.276179        -7.5152
  73   2.0000      -0.260883        -7.0990
  74   0.0000      -0.136966        -3.7270
  75   0.0000      -0.108380        -2.9492
  76   0.0000      -0.070206        -1.9104
  77   0.0000      -0.026516        -0.7215
  78   0.0000      -0.023844        -0.6488

MULLIKEN ATOMIC CHARGES
-----------------------
   0 C :   -0.104841
   1 C :    0.251262
   2 F :   -0.164943
   3 C :    0.244216
   4 F :   -0.164597
   5 C :   -0.100121
   6 C :    0.113780
   7 C :    0.104528
   8 C :   -0.076673
   9 C :    0.054376
  10 C :   -0.009652
  11 C :   -0.066831
  12 C :    0.147818
  13 O :   -0.146308
  14 C :   -0.114177
  15 C :    0.270604
  16 C :   -0.295848
  17 C :   -0.148372
  18 N :    0.112050
  19 C :   -0.131333
  20 N :    0.104294
  21 C :    0.007744
  22 H :    0.008901
  23 H :    0.001181
  24 H :   -0.004467
  25 H :   -0.007712
  26 H :    0.058729
  27 H :    0.056393
Sum of atomic charges:    0.0000000

LOEWDIN ATOMIC CHARGES
----------------------
   0 C :   -0.029816
   1 C :    0.064902
   2 F :   -0.035904
   3 C :    0.066960
   4 F :   -0.035456
   5 C :   -0.034409
   6 C :   -0.004690
   7 C :   -0.003030
   8 C :    0.017404
   9 C :   -0.020109
  10 C :   -0.053112
  11 C :    0.030170
  12 C :    0.081491
  13 O :   -0.132066
  14 C :   -0.071089
  15 C :    0.063883
  16 C :   -0.117483
  17 C :   -0.011450
  18 N :   -0.047113
  19 C :   -0.009977
  20 N :   -0.051124
  21 C :    0.070238
  22 H :    0.048410
  23 H :    0.045774
  24 H :    0.039898
  25 H :    0.041794
  26 H :    0.045249
  27 H :    0.040656

  Mayer bond orders larger than 0.100000
B(  0-C ,  1-C ) :   1.4264 B(  0-C ,  5-C ) :   0.1054 B(  0-C ,  7-C ) :   1.1794
B(  0-C , 22-H ) :   1.0039 B(  1-C ,  2-F ) :   1.1286 B(  1-C ,  3-C ) :   1.1754
B(  3-C ,  4-F ) :   1.1255 B(  3-C ,  5-C ) :   1.4282 B(  5-C ,  6-C ) :   1.1906
B(  5-C , 23-H ) :   1.0025 B(  6-C ,  7-C ) :   1.2251 B(  6-C , 11-C ) :   1.1994
B(  7-C ,  8-C ) :   1.2400 B(  8-C ,  9-C ) :   1.3937 B(  8-C , 24-H ) :   0.9890
B(  9-C , 10-C ) :   1.2127 B(  9-C , 15-C ) :   1.0258 B( 10-C , 11-C ) :   1.4394
B( 10-C , 12-C ) :   0.9339 B( 11-C , 25-H ) :   1.0103 B( 12-C , 13-O ) :   2.2322
B( 12-C , 14-C ) :   0.9130 B( 14-C , 15-C ) :   1.0075 B( 14-C , 21-C ) :   1.9013
B( 15-C , 16-C ) :   1.6269 B( 16-C , 17-C ) :   1.1437 B( 16-C , 19-C ) :   1.1344
B( 17-C , 18-N ) :   2.9387 B( 19-C , 20-N ) :   2.9227 B( 21-C , 26-H ) :   0.9154
B( 21-C , 27-H ) :   0.9216

Dispersion correction           -0.072193951
FINAL SINGLE POINT ENERGY     -1035.078993407579

DIPOLE MOMENT
-------------
                                X             Y             Z
Electronic contribution:     12.14978       7.19204      -1.02455
Nuclear contribution   :    -10.86416      -7.87260       0.81944
                        -----------------------------------------
Total Dipole Moment    :      1.28562      -0.68057      -0.20510
                        -----------------------------------------
Magnitude (a.u.)       :      1.46903
Magnitude (Debye)      :      3.73398

Rotational constants in cm-1:     0.018776     0.005372     0.004177
Rotational constants in MHz :   562.899444   161.035395   125.220699

                             ****ORCA TERMINATED NORMALLY****
TOTAL RUN TIME: 0 days 0 hours 32 minutes 34 seconds 854 msec
