                         Program Version 4.2.0 -  RELEASE  -
|  1> # ORCA input file
|  2> # SCF done        -13.321813245672          0.000630403090
|  3> ! B3LYP/G D3BJ Opt RIJCOSX def2-SVP def2/J
|  4> * xyz 0 1
|  5>    C        1.31626         0.23951         0.00296
|  6>    C        0.74240        -0.97732         0.00587
|  7>    C       -0.71639        -0.98244         0.00894
|  8>    C       -1.29878         0.23033         0.00847
|  9>   Si        0.00409         1.55894         0.00389
| 10>    H        0.00372         2.39003         1.21113
| 11>    H       -0.00135         2.38666        -1.20565
| 12>    H        2.38870         0.35311         0.00057
| 13>    H        1.28464        -1.91238         0.00605
| 14>    H       -1.25206        -1.92126         0.01139
| 15>    H       -2.37199         0.33640         0.01058
| 16> *
| 17>
| 18>                          ****END OF INPUT****
 Total Charge           Charge          ....    0
 Multiplicity           Mult            ....    1
 Number of Electrons    NEL             ....   44
Dispersion correction           -0.017978004
FINAL SINGLE POINT ENERGY      -445.315526936189
Dispersion correction            ... done
Dispersion correction           -0.017883903
FINAL SINGLE POINT ENERGY      -445.318630814300
Dispersion correction            ... done
Dispersion correction           -0.017839603
FINAL SINGLE POINT ENERGY      -445.319196604585
Dispersion correction            ... done
FINAL SINGLE POINT ENERGY      -445.319274362021
Dispersion correction            ... done
Dispersion correction           -0.017825361
FINAL SINGLE POINT ENERGY      -445.319296751015
Dispersion correction            ... done
Dispersion correction           -0.017825032
FINAL SINGLE POINT ENERGY      -445.319302225144
Dispersion correction            ... done
                    ***********************HURRAY********************

CARTESIAN COORDINATES (ANGSTROEM)
---------------------------------
  C      1.365501    0.237922    0.002959
  C      0.755854   -0.969402    0.005824
  C     -0.729881   -0.974647    0.008882
  C     -1.347981    0.228341    0.008382
  Si     0.004183    1.533239    0.003892
  H      0.003645    2.409359    1.213634
  H     -0.001391    2.406061   -1.208191
  H      2.451670    0.350726    0.000438
  H      1.297345   -1.922282    0.005991
  H     -1.264796   -1.931250    0.011570
  H     -2.434910    0.333511    0.010819

 Multiplicity           Mult            ....    1
 Number of Electrons    NEL             ....   44
 Basis Dimension        Dim             ....  104

ORBITAL ENERGIES
----------------

  NO   OCC          E(Eh)            E(eV)
   0   2.0000     -66.110487     -1798.9578
   1   2.0000     -10.203101      -277.6405
   2   2.0000     -10.203023      -277.6384
   3   2.0000     -10.178501      -276.9711
   4   2.0000     -10.178435      -276.9693
   5   2.0000      -5.279036      -143.6499
   6   2.0000      -3.641111       -99.0797
   7   2.0000      -3.640335       -99.0586
   8   2.0000      -3.640290       -99.0573
   9   2.0000      -0.815746       -22.1976
  10   2.0000      -0.707695       -19.2574
  11   2.0000      -0.616499       -16.7758
  12   2.0000      -0.520037       -14.1509
  13   2.0000      -0.507650       -13.8138
  14   2.0000      -0.485876       -13.2214
  15   2.0000      -0.412095       -11.2137
  16   2.0000      -0.385890       -10.5006
  17   2.0000      -0.368907       -10.0385
  18   2.0000      -0.321772        -8.7559
  19   2.0000      -0.317018        -8.6265
  20   2.0000      -0.316359        -8.6086
  21   2.0000      -0.238706        -6.4955
  22   0.0000      -0.059477        -1.6184
  23   0.0000       0.042247         1.1496
  24   0.0000       0.060116         1.6358
  25   0.0000       0.060889         1.6569
  26   0.0000       0.076117         2.0712

MULLIKEN ATOMIC CHARGES
-----------------------
   0 C :   -0.181117
   1 C :    0.013086
   2 C :    0.013204
   3 C :   -0.181414
   4 Si:    0.481288
   5 H :   -0.083530
   6 H :   -0.083611
   7 H :    0.016988
   8 H :   -0.005930
   9 H :   -0.006052
  10 H :    0.017087
Sum of atomic charges:   -0.0000000

LOEWDIN ATOMIC CHARGES
----------------------
   0 C :   -0.195058
   1 C :   -0.024213
   2 C :   -0.024177
   3 C :   -0.195101
   4 Si:    0.533660
   5 H :   -0.094473
   6 H :   -0.094488
   7 H :    0.024726
   8 H :    0.022203
   9 H :    0.022183
  10 H :    0.024738

  Mayer bond orders larger than 0.100000
B(  0-C ,  1-C ) :   1.8256 B(  0-C ,  4-Si) :   0.9469 B(  0-C ,  7-H ) :   0.9465
B(  1-C ,  2-C ) :   1.0717 B(  1-C ,  8-H ) :   0.9784 B(  2-C ,  3-C ) :   1.8256
B(  2-C ,  9-H ) :   0.9785 B(  3-C ,  4-Si) :   0.9468 B(  3-C , 10-H ) :   0.9465
B(  4-Si,  5-H ) :   0.9353 B(  4-Si,  6-H ) :   0.9353

Dispersion correction           -0.017824866
FINAL SINGLE POINT ENERGY      -445.319304528071

DIPOLE MOMENT
-------------
                                X             Y             Z
Electronic contribution:     -0.00055       0.16187      -0.00057
Nuclear contribution   :      0.00122      -0.37182       0.00096
                        -----------------------------------------
Total Dipole Moment    :      0.00068      -0.20995       0.00038
                        -----------------------------------------
Magnitude (a.u.)       :      0.20995
Magnitude (Debye)      :      0.53366

Rotational constants in cm-1:     0.222468     0.162814     0.097217
Rotational constants in MHz :  6669.413911  4881.033029  2914.480296

                             ****ORCA TERMINATED NORMALLY****
TOTAL RUN TIME: 0 days 0 hours 1 minutes 43 seconds 492 msec
