                         Program Version 4.2.0 -  RELEASE  -
|  1> # ORCA input file
|  2> # SCF done        -21.832343434144          0.000493887177
|  3> ! B3LYP/G D3BJ Opt RIJCOSX def2-SVP def2/J
|  4> * xyz 0 1
|  5>    C       -0.88904        -1.43228         0.02085
|  6>    C       -2.07900        -0.76612         0.01925
|  7>    C       -2.11958         0.64608         0.01522
|  8>    C       -0.96983         1.37948         0.01286
|  9>    C        0.28668         0.73655        -0.04052
| 10>    C        1.53373         1.37085        -0.17343
| 11>   Si        2.66845         0.07803         0.38303
| 12>    C        1.60994        -1.28095        -0.16601
| 13>    C        0.32850        -0.71857        -0.03643
| 14>    H       -0.86018        -2.51332         0.03108
| 15>    H       -3.01017        -1.31473         0.03028
| 16>    H       -3.08072         1.14038         0.02328
| 17>    H       -1.00310         2.46044         0.01694
| 18>    H        1.59480         2.44457        -0.07215
| 19>    H        1.73255        -2.34881        -0.05867
| 20> *
| 21>
| 22>                          ****END OF INPUT****
 Total Charge           Charge          ....    0
 Multiplicity           Mult            ....    1
 Number of Electrons    NEL             ....   68
Dispersion correction           -0.033777119
FINAL SINGLE POINT ENERGY      -597.575050845021
Dispersion correction            ... done
Dispersion correction           -0.033696452
FINAL SINGLE POINT ENERGY      -597.581698714580
Dispersion correction            ... done
Dispersion correction           -0.033716812
FINAL SINGLE POINT ENERGY      -597.584803978614
Dispersion correction            ... done
FINAL SINGLE POINT ENERGY      -597.585830257463
FINAL SINGLE POINT ENERGY      -597.586352345462
FINAL SINGLE POINT ENERGY      -597.586585144616
FINAL SINGLE POINT ENERGY      -597.586651882896
FINAL SINGLE POINT ENERGY      -597.586683480149
FINAL SINGLE POINT ENERGY      -597.586708964310
FINAL SINGLE POINT ENERGY      -597.586727338496
FINAL SINGLE POINT ENERGY      -597.586740305136
Dispersion correction            ... done
Dispersion correction           -0.033941982
FINAL SINGLE POINT ENERGY      -597.586746823317
Dispersion correction            ... done
Dispersion correction           -0.033942879
FINAL SINGLE POINT ENERGY      -597.586749666481
Dispersion correction            ... done
                    ***********************HURRAY********************

CARTESIAN COORDINATES (ANGSTROEM)
---------------------------------
  C     -0.915754   -1.464279    0.003724
  C     -2.092774   -0.789777    0.016203
  C     -2.133711    0.668256    0.014709
  C     -0.996933    1.408640   -0.000914
  C      0.304900    0.766013   -0.057575
  C      1.523050    1.382890   -0.117168
  Si     2.832069    0.084920    0.356432
  C      1.599472   -1.292814   -0.102696
  C      0.347657   -0.747880   -0.052055
  H     -0.890822   -2.557012    0.017963
  H     -3.038781   -1.336578    0.036326
  H     -3.108835    1.161523    0.034661
  H     -1.035368    2.500916    0.010284
  H      1.604815    2.473331   -0.087999
  H      1.744047   -2.376548   -0.066316

 Multiplicity           Mult            ....    1
 Number of Electrons    NEL             ....   68
 Basis Dimension        Dim             ....  160

ORBITAL ENERGIES
----------------

  NO   OCC          E(Eh)            E(eV)
   0   2.0000     -66.115633     -1799.0978
   1   2.0000     -10.212712      -277.9020
   2   2.0000     -10.212469      -277.8954
   3   2.0000     -10.207442      -277.7586
   4   2.0000     -10.207292      -277.7545
   5   2.0000     -10.202191      -277.6157
   6   2.0000     -10.201966      -277.6096
   7   2.0000     -10.171381      -276.7773
   8   2.0000     -10.171253      -276.7739
   9   2.0000      -5.282697      -143.7495
  10   2.0000      -3.649214       -99.3002
  11   2.0000      -3.641727       -99.0964
  12   2.0000      -3.639587       -99.0382
  13   2.0000      -0.860918       -23.4268
  14   2.0000      -0.787829       -21.4379
  15   2.0000      -0.765116       -20.8199
  16   2.0000      -0.687453       -18.7065
  17   2.0000      -0.652549       -17.7568
  18   2.0000      -0.584506       -15.9052
  19   2.0000      -0.555303       -15.1105
  20   2.0000      -0.504382       -13.7249
  21   2.0000      -0.500420       -13.6171
  22   2.0000      -0.457707       -12.4548
  23   2.0000      -0.432191       -11.7605
  24   2.0000      -0.431134       -11.7318
  25   2.0000      -0.406632       -11.0650
  26   2.0000      -0.388199       -10.5634
  27   2.0000      -0.385710       -10.4957
  28   2.0000      -0.340484        -9.2650
  29   2.0000      -0.312834        -8.5126
  30   2.0000      -0.307640        -8.3713
  31   2.0000      -0.289348        -7.8735
  32   2.0000      -0.222196        -6.0463
  33   2.0000      -0.202205        -5.5023
  34   0.0000      -0.131131        -3.5683
  35   0.0000      -0.034482        -0.9383
  36   0.0000       0.012463         0.3391
  37   0.0000       0.023699         0.6449
  38   0.0000       0.058113         1.5813

MULLIKEN ATOMIC CHARGES
-----------------------
   0 C :    0.015650
   1 C :    0.025235
   2 C :    0.024439
   3 C :    0.014184
   4 C :    0.066447
   5 C :   -0.250422
   6 Si:    0.349750
   7 C :   -0.248879
   8 C :    0.063519
   9 H :   -0.017681
  10 H :   -0.009291
  11 H :   -0.010122
  12 H :   -0.017553
  13 H :   -0.002264
  14 H :   -0.003013
Sum of atomic charges:    0.0000000

LOEWDIN ATOMIC CHARGES
----------------------
   0 C :   -0.017722
   1 C :   -0.017415
   2 C :   -0.016839
   3 C :   -0.018026
   4 C :   -0.007776
   5 C :   -0.235973
   6 Si:    0.400571
   7 C :   -0.234093
   8 C :   -0.008969
   9 H :    0.030945
  10 H :    0.029462
  11 H :    0.029300
  12 H :    0.030932
  13 H :    0.017864
  14 H :    0.017741

  Mayer bond orders larger than 0.100000
B(  0-C ,  1-C ) :   1.6504 B(  0-C ,  8-C ) :   1.0942 B(  0-C ,  9-H ) :   0.9897
B(  1-C ,  2-C ) :   1.0767 B(  1-C , 10-H ) :   0.9803 B(  2-C ,  3-C ) :   1.6509
B(  2-C , 11-H ) :   0.9804 B(  3-C ,  4-C ) :   1.0951 B(  3-C , 12-H ) :   0.9895
B(  4-C ,  5-C ) :   1.6854 B(  4-C ,  6-Si) :   0.1046 B(  4-C ,  8-C ) :   0.9903
B(  5-C ,  6-Si) :   0.9325 B(  5-C ,  7-C ) :   0.1042 B(  5-C , 13-H ) :   0.9372
B(  6-Si,  7-C ) :   0.9304 B(  6-Si,  8-C ) :   0.1020 B(  7-C ,  8-C ) :   1.6881
B(  7-C , 14-H ) :   0.9370

Dispersion correction           -0.033943964
FINAL SINGLE POINT ENERGY      -597.586750515493

DIPOLE MOMENT
-------------
                                X             Y             Z
Electronic contribution:      5.85172       0.16714       0.22781
Nuclear contribution   :     -6.57885      -0.19172      -0.34594
                        -----------------------------------------
Total Dipole Moment    :     -0.72713      -0.02458      -0.11813
                        -----------------------------------------
Magnitude (a.u.)       :      0.73708
Magnitude (Debye)      :      1.87350

Rotational constants in cm-1:     0.112549     0.039233     0.029363
Rotational constants in MHz :  3374.140414  1176.179198   880.278721

                             ****ORCA TERMINATED NORMALLY****
TOTAL RUN TIME: 0 days 0 hours 9 minutes 13 seconds 334 msec
