                         Program Version 4.2.0 -  RELEASE  -
|  1> # ORCA input file
|  2> # SCF done        -16.414784502854          0.000674075858
|  3> ! B3LYP/G D3BJ Opt RIJCOSX def2-SVP def2/J
|  4> * xyz 0 1
|  5>    C       -0.74964         1.08675         0.03754
|  6>    C        0.63832         1.15608         0.04292
|  7>    N        1.38481         0.06248         0.04591
|  8>    C        0.75101        -1.10007         0.04354
|  9>    C       -0.63695        -1.16940         0.03816
| 10>    N       -1.38344        -0.07580         0.03517
| 11>    H       -1.37019         1.97233         0.03507
| 12>    H        1.16753         2.09909         0.04491
| 13>    H        1.37156        -1.98565         0.04601
| 14>    H       -1.16616        -2.11241         0.03617
| 15> *
| 16>
| 17>                          ****END OF INPUT****
 Total Charge           Charge          ....    0
 Multiplicity           Mult            ....    1
 Number of Electrons    NEL             ....   42
Dispersion correction           -0.015446909
FINAL SINGLE POINT ENERGY      -264.136979770031
Dispersion correction            ... done
Dispersion correction           -0.015397351
FINAL SINGLE POINT ENERGY      -264.138361122989
Dispersion correction            ... done
Dispersion correction           -0.015393051
FINAL SINGLE POINT ENERGY      -264.138452044608
Dispersion correction            ... done
Dispersion correction           -0.015392926
FINAL SINGLE POINT ENERGY      -264.138504515093
Dispersion correction            ... done
Dispersion correction           -0.015394385
FINAL SINGLE POINT ENERGY      -264.138507167300
Dispersion correction            ... done
                    ***********************HURRAY********************

CARTESIAN COORDINATES (ANGSTROEM)
---------------------------------
  C     -0.754912    1.091388    0.037542
  C      0.643256    1.160833    0.042943
  N      1.401401    0.062707    0.046009
  C      0.756282   -1.104708    0.043538
  C     -0.641887   -1.174153    0.038137
  N     -1.400032   -0.076027    0.035070
  H     -1.361432    2.003749    0.035108
  H      1.155182    2.129646    0.044839
  H      1.362802   -2.017069    0.045972
  H     -1.153811   -2.142966    0.036242

 Multiplicity           Mult            ....    1
 Number of Electrons    NEL             ....   42
 Basis Dimension        Dim             ....  104

ORBITAL ENERGIES
----------------

  NO   OCC          E(Eh)            E(eV)
   0   2.0000     -14.346890      -390.3987
   1   2.0000     -14.346755      -390.3951
   2   2.0000     -10.239548      -278.6323
   3   2.0000     -10.239499      -278.6309
   4   2.0000     -10.239206      -278.6230
   5   2.0000     -10.239168      -278.6219
   6   2.0000      -0.983142       -26.7526
   7   2.0000      -0.907771       -24.7017
   8   2.0000      -0.777242       -21.1498
   9   2.0000      -0.659481       -17.9454
  10   2.0000      -0.659320       -17.9410
  11   2.0000      -0.531276       -14.4568
  12   2.0000      -0.526475       -14.3261
  13   2.0000      -0.490364       -13.3435
  14   2.0000      -0.444951       -12.1077
  15   2.0000      -0.434935       -11.8352
  16   2.0000      -0.397917       -10.8279
  17   2.0000      -0.339909        -9.2494
  18   2.0000      -0.313107        -8.5201
  19   2.0000      -0.286009        -7.7827
  20   2.0000      -0.253522        -6.8987
  21   0.0000      -0.057961        -1.5772
  22   0.0000      -0.035600        -0.9687
  23   0.0000       0.073652         2.0042
  24   0.0000       0.086502         2.3538
  25   0.0000       0.117570         3.1993

MULLIKEN ATOMIC CHARGES
-----------------------
   0 C :    0.034493
   1 C :    0.034726
   2 N :   -0.090742
   3 C :    0.034498
   4 C :    0.034727
   5 N :   -0.090733
   6 H :    0.011262
   7 H :    0.010255
   8 H :    0.011260
   9 H :    0.010254
Sum of atomic charges:   -0.0000000

LOEWDIN ATOMIC CHARGES
----------------------
   0 C :    0.002956
   1 C :    0.003233
   2 N :   -0.056567
   3 C :    0.002956
   4 C :    0.003233
   5 N :   -0.056567
   6 H :    0.025277
   7 H :    0.025101
   8 H :    0.025277
   9 H :    0.025101

  Mayer bond orders larger than 0.100000
B(  0-C ,  1-C ) :   1.3674 B(  0-C ,  3-C ) :   0.1031 B(  0-C ,  5-N ) :   1.5342
B(  0-C ,  6-H ) :   0.9696 B(  1-C ,  2-N ) :   1.5332 B(  1-C ,  4-C ) :   0.1035
B(  1-C ,  7-H ) :   0.9701 B(  2-N ,  3-C ) :   1.5342 B(  3-C ,  4-C ) :   1.3674
B(  3-C ,  8-H ) :   0.9696 B(  4-C ,  5-N ) :   1.5332 B(  4-C ,  9-H ) :   0.9701

Dispersion correction           -0.015395028
FINAL SINGLE POINT ENERGY      -264.138507000333

DIPOLE MOMENT
-------------
                                X             Y             Z
Electronic contribution:     -0.00000      -0.00000       0.00000
Nuclear contribution   :      0.00000      -0.00000       0.00000
                        -----------------------------------------
Total Dipole Moment    :      0.00000      -0.00000       0.00000
                        -----------------------------------------
Magnitude (a.u.)       :      0.00000
Magnitude (Debye)      :      0.00000

Rotational constants in cm-1:     0.212908     0.198237     0.102655
Rotational constants in MHz :  6382.817102  5942.998721  3077.530480

                             ****ORCA TERMINATED NORMALLY****
TOTAL RUN TIME: 0 days 0 hours 1 minutes 25 seconds 387 msec
