                         Program Version 4.2.0 -  RELEASE  -
|  1> # ORCA input file
|  2> # SCF done        -16.392266357244          0.000509010059
|  3> ! B3LYP/G D3BJ Opt RIJCOSX def2-SVP def2/J
|  4> * xyz 0 1
|  5>    C       -0.69836         1.11766         0.05115
|  6>    N        0.61673         1.17633         0.13129
|  7>    N        1.32504         0.08794         0.13436
|  8>    C        0.73904        -1.09104         0.05740
|  9>    C       -0.64423        -1.24316        -0.03013
| 10>    C       -1.39740        -0.08585        -0.03340
| 11>    H       -1.20652         2.07179         0.05515
| 12>    H        1.40563        -1.94203         0.06650
| 13>    H       -1.09716        -2.22130        -0.09201
| 14>    H       -2.47500        -0.10412        -0.09799
| 15> *
| 16>
| 17>                          ****END OF INPUT****
 Total Charge           Charge          ....    0
 Multiplicity           Mult            ....    1
 Number of Electrons    NEL             ....   42
Dispersion correction           -0.015544781
FINAL SINGLE POINT ENERGY      -264.105358162322
Dispersion correction            ... done
Dispersion correction           -0.015485423
FINAL SINGLE POINT ENERGY      -264.107096958150
Dispersion correction            ... done
Dispersion correction           -0.015480163
FINAL SINGLE POINT ENERGY      -264.107165557104
Dispersion correction            ... done
Dispersion correction           -0.015480405
FINAL SINGLE POINT ENERGY      -264.107173602420
Dispersion correction            ... done
                    ***********************HURRAY********************

CARTESIAN COORDINATES (ANGSTROEM)
---------------------------------
  C     -0.700821    1.124636    0.050664
  N      0.628315    1.199390    0.133212
  N      1.351555    0.088313    0.138720
  C      0.744415   -1.096275    0.057678
  C     -0.645002   -1.247012   -0.029263
  C     -1.401073   -0.085013   -0.031217
  H     -1.226251    2.085147    0.051046
  H      1.410602   -1.964291    0.063790
  H     -1.102319   -2.236846   -0.094920
  H     -2.491653   -0.101829   -0.097391

 Multiplicity           Mult            ....    1
 Number of Electrons    NEL             ....   42
 Basis Dimension        Dim             ....  104

ORBITAL ENERGIES
----------------

  NO   OCC          E(Eh)            E(eV)
   0   2.0000     -14.358880      -390.7250
   1   2.0000     -14.358458      -390.7135
   2   2.0000     -10.238194      -278.5954
   3   2.0000     -10.238030      -278.5909
   4   2.0000     -10.228792      -278.3396
   5   2.0000     -10.228372      -278.3281
   6   2.0000      -1.015641       -27.6370
   7   2.0000      -0.824093       -22.4247
   8   2.0000      -0.823840       -22.4178
   9   2.0000      -0.661604       -18.0032
  10   2.0000      -0.658912       -17.9299
  11   2.0000      -0.539522       -14.6811
  12   2.0000      -0.522233       -14.2107
  13   2.0000      -0.480539       -13.0761
  14   2.0000      -0.435923       -11.8621
  15   2.0000      -0.435466       -11.8496
  16   2.0000      -0.420299       -11.4369
  17   2.0000      -0.317047        -8.6273
  18   2.0000      -0.315945        -8.5973
  19   2.0000      -0.302487        -8.2311
  20   2.0000      -0.232522        -6.3272
  21   0.0000      -0.058846        -1.6013
  22   0.0000      -0.039148        -1.0653
  23   0.0000       0.051239         1.3943
  24   0.0000       0.088293         2.4026
  25   0.0000       0.113830         3.0975

MULLIKEN ATOMIC CHARGES
-----------------------
   0 C :    0.037628
   1 N :   -0.085518
   2 N :   -0.086380
   3 C :    0.038980
   4 C :    0.029432
   5 C :    0.017226
   6 H :    0.013862
   7 H :    0.014477
   8 H :    0.006430
   9 H :    0.013862
Sum of atomic charges:   -0.0000000

LOEWDIN ATOMIC CHARGES
----------------------
   0 C :    0.000744
   1 N :   -0.049270
   2 N :   -0.049551
   3 C :    0.000749
   4 C :   -0.015826
   5 C :   -0.017726
   6 H :    0.028561
   7 H :    0.028628
   8 H :    0.036195
   9 H :    0.037498

  Mayer bond orders larger than 0.100000
B(  0-C ,  1-N ) :   1.5691 B(  0-C ,  5-C ) :   1.3211 B(  0-C ,  6-H ) :   0.9842
B(  1-N ,  2-N ) :   1.2948 B(  2-N ,  3-C ) :   1.5696 B(  3-C ,  4-C ) :   1.3208
B(  3-C ,  7-H ) :   0.9841 B(  4-C ,  5-C ) :   1.4358 B(  4-C ,  8-H ) :   0.9833
B(  5-C ,  9-H ) :   0.9829

Dispersion correction           -0.015480871
FINAL SINGLE POINT ENERGY      -264.107175351829

DIPOLE MOMENT
-------------
                                X             Y             Z
Electronic contribution:      1.86530       1.21470       0.15848
Nuclear contribution   :     -3.19936      -2.08033      -0.27353
                        -----------------------------------------
Total Dipole Moment    :     -1.33406      -0.86564      -0.11505
                        -----------------------------------------
Magnitude (a.u.)       :      1.59445
Magnitude (Debye)      :      4.05278

Rotational constants in cm-1:     0.207975     0.199325     0.101779
Rotational constants in MHz :  6234.925267  5975.612354  3051.262940

                             ****ORCA TERMINATED NORMALLY****
TOTAL RUN TIME: 0 days 0 hours 1 minutes 17 seconds 124 msec
