                         Program Version 4.2.0 -  RELEASE  -
|  1> # ORCA input file
|  2> # SCF done         -6.271260120802          0.000355601440
|  3> ! B3LYP/G D3BJ Opt RIJCOSX def2-SVP def2/J
|  4> * xyz 0 1
|  5>    C        1.00145        -0.09141         0.03492
|  6>    C        2.31773        -0.09141         0.03492
|  7>    H        0.42955         0.82190         0.01884
|  8>    H        0.42955        -1.00472         0.05100
|  9>    H        2.88963         0.82190         0.01884
| 10>    H        2.88963        -1.00472         0.05100
| 11> *
| 12>
| 13>                          ****END OF INPUT****
 Total Charge           Charge          ....    0
 Multiplicity           Mult            ....    1
 Number of Electrons    NEL             ....   16
Dispersion correction           -0.003949422
FINAL SINGLE POINT ENERGY       -78.534566541609
Dispersion correction            ... done
Dispersion correction           -0.003935500
FINAL SINGLE POINT ENERGY       -78.535660390086
Dispersion correction            ... done
Dispersion correction           -0.003935046
FINAL SINGLE POINT ENERGY       -78.535675607793
Dispersion correction            ... done
Dispersion correction           -0.003935384
FINAL SINGLE POINT ENERGY       -78.535681212660
Dispersion correction            ... done
Dispersion correction           -0.003935821
FINAL SINGLE POINT ENERGY       -78.535682327059
Dispersion correction            ... done
                    ***********************HURRAY********************

CARTESIAN COORDINATES (ANGSTROEM)
---------------------------------
  C      0.993402   -0.091409    0.034920
  C      2.325778   -0.091409    0.034921
  H      0.417701    0.839418    0.018531
  H      0.417704   -1.022239    0.051308
  H      2.901479    0.839418    0.018531
  H      2.901476   -1.022239    0.051308

 Multiplicity           Mult            ....    1
 Number of Electrons    NEL             ....   16
 Basis Dimension        Dim             ....   48

ORBITAL ENERGIES
----------------

  NO   OCC          E(Eh)            E(eV)
   0   2.0000     -10.190343      -277.2933
   1   2.0000     -10.189650      -277.2745
   2   2.0000      -0.751531       -20.4502
   3   2.0000      -0.572289       -15.5728
   4   2.0000      -0.466834       -12.7032
   5   2.0000      -0.421599       -11.4723
   6   2.0000      -0.354931        -9.6582
   7   2.0000      -0.275849        -7.5062
   8   0.0000       0.005788         0.1575
   9   0.0000       0.081542         2.2189
  10   0.0000       0.101241         2.7549
  11   0.0000       0.114463         3.1147
  12   0.0000       0.183907         5.0044

MULLIKEN ATOMIC CHARGES
-----------------------
   0 C :   -0.055197
   1 C :   -0.055202
   2 H :    0.027601
   3 H :    0.027600
   4 H :    0.027600
   5 H :    0.027599
Sum of atomic charges:   -0.0000000

LOEWDIN ATOMIC CHARGES
----------------------
   0 C :   -0.048133
   1 C :   -0.048133
   2 H :    0.024067
   3 H :    0.024067
   4 H :    0.024067
   5 H :    0.024066

  Mayer bond orders larger than 0.100000
B(  0-C ,  1-C ) :   2.0838 B(  0-C ,  2-H ) :   0.9621 B(  0-C ,  3-H ) :   0.9621
B(  1-C ,  4-H ) :   0.9621 B(  1-C ,  5-H ) :   0.9621

Dispersion correction           -0.003936020
FINAL SINGLE POINT ENERGY       -78.535682297216

DIPOLE MOMENT
-------------
                                X             Y             Z
Electronic contribution:     -0.00000       0.00000       0.00000
Nuclear contribution   :      0.00000      -0.00000      -0.00000
                        -----------------------------------------
Total Dipole Moment    :     -0.00000      -0.00000      -0.00000
                        -----------------------------------------
Magnitude (a.u.)       :      0.00000
Magnitude (Debye)      :      0.00000

Rotational constants in cm-1:     4.823944     0.998699     0.827402
Rotational constants in MHz : 144618.198642 29940.242190 24804.895551

                             ****ORCA TERMINATED NORMALLY****
TOTAL RUN TIME: 0 days 0 hours 0 minutes 22 seconds 212 msec
