                         Program Version 4.2.0 -  RELEASE  -
|  1> # ORCA input file
|  2> # SCF done        -25.207639955132          0.000490597272
|  3> ! B3LYP/G D3BJ Opt RIJCOSX def2-SVP def2/J
|  4> * xyz 0 1
|  5>    C       -0.91390        -1.37864         0.00046
|  6>    N       -2.01272        -0.69327        -0.00055
|  7>    N       -2.03113         0.63753        -0.00179
|  8>    C       -0.95168         1.35303        -0.00210
|  9>    C        0.32036         0.72513        -0.00108
| 10>    C        0.34029        -0.71580         0.00027
| 11>    N        1.60721        -1.08878         0.00105
| 12>    O        2.31413         0.03210        -0.00003
| 13>    N        1.57648         1.13300        -0.00090
| 14>    H       -0.99511        -2.45460         0.00139
| 15>    H       -1.06262         2.42633        -0.00300
| 16> *
| 17>
| 18>                          ****END OF INPUT****
 Total Charge           Charge          ....    0
 Multiplicity           Mult            ....    1
 Number of Electrons    NEL             ....   62
Dispersion correction           -0.021073485
FINAL SINGLE POINT ENERGY      -447.382129816723
Dispersion correction            ... done
Dispersion correction           -0.021039219
FINAL SINGLE POINT ENERGY      -447.385267945630
Dispersion correction            ... done
Dispersion correction           -0.021032901
FINAL SINGLE POINT ENERGY      -447.385861997578
Dispersion correction            ... done
FINAL SINGLE POINT ENERGY      -447.385931573192
Dispersion correction            ... done
Dispersion correction           -0.021036462
FINAL SINGLE POINT ENERGY      -447.385939518038
Dispersion correction            ... done
Dispersion correction           -0.021036253
FINAL SINGLE POINT ENERGY      -447.385940965838
Dispersion correction            ... done
                    ***********************HURRAY********************

CARTESIAN COORDINATES (ANGSTROEM)
---------------------------------
  C     -0.913570   -1.388975    0.000412
  N     -2.030105   -0.716837   -0.000596
  N     -2.049105    0.660593   -0.001744
  C     -0.951562    1.363465   -0.002074
  C      0.325638    0.716989   -0.001117
  C      0.345176   -0.707343    0.000267
  N      1.601008   -1.113474    0.001197
  O      2.324848    0.031998   -0.000034
  N      1.569773    1.157443   -0.001013
  H     -0.981017   -2.481510    0.001419
  H     -1.049773    2.453682   -0.002996

 Multiplicity           Mult            ....    1
 Number of Electrons    NEL             ....   62
 Basis Dimension        Dim             ....  136

ORBITAL ENERGIES
----------------

  NO   OCC          E(Eh)            E(eV)
   0   2.0000     -19.303280      -525.2689
   1   2.0000     -14.435572      -392.8119
   2   2.0000     -14.435473      -392.8092
   3   2.0000     -14.387957      -391.5162
   4   2.0000     -14.387793      -391.5117
   5   2.0000     -10.278999      -279.7058
   6   2.0000     -10.278862      -279.7021
   7   2.0000     -10.277411      -279.6626
   8   2.0000     -10.277141      -279.6552
   9   2.0000      -1.234616       -33.5956
  10   2.0000      -1.035779       -28.1850
  11   2.0000      -0.952776       -25.9263
  12   2.0000      -0.911147       -24.7936
  13   2.0000      -0.869178       -23.6515
  14   2.0000      -0.746461       -20.3122
  15   2.0000      -0.709808       -19.3148
  16   2.0000      -0.657401       -17.8888
  17   2.0000      -0.591395       -16.0927
  18   2.0000      -0.585079       -15.9208
  19   2.0000      -0.548840       -14.9347
  20   2.0000      -0.510552       -13.8928
  21   2.0000      -0.502502       -13.6738
  22   2.0000      -0.461781       -12.5657
  23   2.0000      -0.456787       -12.4298
  24   2.0000      -0.382078       -10.3969
  25   2.0000      -0.375290       -10.2122
  26   2.0000      -0.357076        -9.7165
  27   2.0000      -0.356266        -9.6945
  28   2.0000      -0.334398        -9.0994
  29   2.0000      -0.310346        -8.4449
  30   2.0000      -0.268384        -7.3031
  31   0.0000      -0.132451        -3.6042
  32   0.0000      -0.054751        -1.4899
  33   0.0000      -0.029336        -0.7983
  34   0.0000       0.061249         1.6667
  35   0.0000       0.076252         2.0749

MULLIKEN ATOMIC CHARGES
-----------------------
   0 C :    0.026627
   1 N :   -0.054516
   2 N :   -0.055203
   3 C :    0.027109
   4 C :   -0.012395
   5 C :   -0.013633
   6 N :    0.068394
   7 O :   -0.111441
   8 N :    0.067904
   9 H :    0.028608
  10 H :    0.028547
Sum of atomic charges:   -0.0000000

LOEWDIN ATOMIC CHARGES
----------------------
   0 C :    0.027768
   1 N :   -0.034783
   2 N :   -0.034860
   3 C :    0.027880
   4 C :   -0.076463
   5 C :   -0.076568
   6 N :    0.004099
   7 O :    0.073726
   8 N :    0.003998
   9 H :    0.042603
  10 H :    0.042599

  Mayer bond orders larger than 0.100000
B(  0-C ,  1-N ) :   1.7885 B(  0-C ,  3-C ) :   0.1025 B(  0-C ,  5-C ) :   1.0850
B(  0-C ,  9-H ) :   0.9982 B(  1-N ,  2-N ) :   1.1138 B(  2-N ,  3-C ) :   1.7878
B(  3-C ,  4-C ) :   1.0855 B(  3-C , 10-H ) :   0.9979 B(  4-C ,  5-C ) :   1.1865
B(  4-C ,  8-N ) :   1.5674 B(  5-C ,  6-N ) :   1.5678 B(  6-N ,  7-O ) :   1.0636
B(  6-N ,  8-N ) :   0.2021 B(  7-O ,  8-N ) :   1.0636

Dispersion correction           -0.021035851
FINAL SINGLE POINT ENERGY      -447.385941332394

DIPOLE MOMENT
-------------
                                X             Y             Z
Electronic contribution:      2.24999       0.03132       0.00059
Nuclear contribution   :     -2.00246      -0.02760      -0.00051
                        -----------------------------------------
Total Dipole Moment    :      0.24753       0.00371       0.00008
                        -----------------------------------------
Magnitude (a.u.)       :      0.24756
Magnitude (Debye)      :      0.62925

Rotational constants in cm-1:     0.141205     0.056452     0.040329
Rotational constants in MHz :  4233.214312  1692.394179  1209.034873

                             ****ORCA TERMINATED NORMALLY****
TOTAL RUN TIME: 0 days 0 hours 3 minutes 9 seconds 149 msec
