                         Program Version 4.2.0 -  RELEASE  -
|  1> # ORCA input file
|  2> # SCF done        -24.338085129978          0.000563102721
|  3> ! B3LYP/G D3BJ Opt RIJCOSX def2-SVP def2/J
|  4> * xyz 0 1
|  5>    C       -0.75480         1.17245        -0.00750
|  6>    C        0.62642         1.24779        -0.00718
|  7>    C        1.35986         0.07407        -0.00118
|  8>    F        2.70558         0.14747        -0.00086
|  9>    C        0.75843        -1.17246         0.00450
| 10>    C       -0.62279        -1.24780         0.00417
| 11>    C       -1.35623        -0.07408        -0.00183
| 12>    F       -2.70195        -0.14748        -0.00215
| 13>    H       -1.36346         2.06232        -0.01207
| 14>    H        1.13469         2.19858        -0.01148
| 15>    H        1.36709        -2.06232         0.00907
| 16>    H       -1.13106        -2.19858         0.00847
| 17> *
| 18>
| 19>                          ****END OF INPUT****
 Total Charge           Charge          ....    0
 Multiplicity           Mult            ....    1
 Number of Electrons    NEL             ....   58
Dispersion correction           -0.019631522
FINAL SINGLE POINT ENERGY      -430.420130636825
Dispersion correction            ... done
Dispersion correction           -0.019558447
FINAL SINGLE POINT ENERGY      -430.421317387446
Dispersion correction            ... done
Dispersion correction           -0.019550375
FINAL SINGLE POINT ENERGY      -430.421365975581
Dispersion correction            ... done
Dispersion correction           -0.019550616
FINAL SINGLE POINT ENERGY      -430.421372550170
Dispersion correction            ... done
                    ***********************HURRAY********************

CARTESIAN COORDINATES (ANGSTROEM)
---------------------------------
  C     -0.761444    1.176661   -0.007406
  C      0.632772    1.253380   -0.007076
  C      1.376725    0.074943   -0.001199
  F      2.716102    0.145487   -0.000848
  C      0.765075   -1.176669    0.004398
  C     -0.629141   -1.253387    0.004067
  C     -1.373095   -0.074950   -0.001808
  F     -2.712473   -0.145494   -0.002152
  H     -1.381243    2.074458   -0.012232
  H      1.149045    2.214690   -0.011599
  H      1.384875   -2.074465    0.009225
  H     -1.145417   -2.214694    0.008591

 Multiplicity           Mult            ....    1
 Number of Electrons    NEL             ....   58
 Basis Dimension        Dim             ....  132

ORBITAL ENERGIES
----------------

  NO   OCC          E(Eh)            E(eV)
   0   2.0000     -24.701602      -672.1648
   1   2.0000     -24.701573      -672.1640
   2   2.0000     -10.279867      -279.7294
   3   2.0000     -10.279808      -279.7278
   4   2.0000     -10.212246      -277.8893
   5   2.0000     -10.212189      -277.8878
   6   2.0000     -10.211840      -277.8783
   7   2.0000     -10.211789      -277.8769
   8   2.0000      -1.211986       -32.9798
   9   2.0000      -1.211788       -32.9744
  10   2.0000      -0.870581       -23.6897
  11   2.0000      -0.767887       -20.8953
  12   2.0000      -0.748753       -20.3746
  13   2.0000      -0.644778       -17.5453
  14   2.0000      -0.621055       -16.8998
  15   2.0000      -0.558817       -15.2062
  16   2.0000      -0.543283       -14.7835
  17   2.0000      -0.525035       -14.2869
  18   2.0000      -0.478984       -13.0338
  19   2.0000      -0.468733       -12.7549
  20   2.0000      -0.463643       -12.6164
  21   2.0000      -0.449297       -12.2260
  22   2.0000      -0.439280       -11.9534
  23   2.0000      -0.431404       -11.7391
  24   2.0000      -0.387098       -10.5335
  25   2.0000      -0.364089        -9.9074
  26   2.0000      -0.358921        -9.7668
  27   2.0000      -0.280410        -7.6303
  28   2.0000      -0.250232        -6.8091
  29   0.0000      -0.032891        -0.8950
  30   0.0000      -0.008258        -0.2247
  31   0.0000       0.053006         1.4424
  32   0.0000       0.087222         2.3734
  33   0.0000       0.118571         3.2265

MULLIKEN ATOMIC CHARGES
-----------------------
   0 C :   -0.042613
   1 C :   -0.044963
   2 C :    0.288029
   3 F :   -0.198628
   4 C :   -0.042622
   5 C :   -0.044949
   6 C :    0.288038
   7 F :   -0.198628
   8 H :   -0.000811
   9 H :   -0.001021
  10 H :   -0.000811
  11 H :   -0.001021
Sum of atomic charges:    0.0000000

LOEWDIN ATOMIC CHARGES
----------------------
   0 C :   -0.040871
   1 C :   -0.041221
   2 C :    0.071849
   3 F :   -0.067752
   4 C :   -0.040872
   5 C :   -0.041220
   6 C :    0.071848
   7 F :   -0.067751
   8 H :    0.039032
   9 H :    0.038964
  10 H :    0.039032
  11 H :    0.038963

  Mayer bond orders larger than 0.100000
B(  0-C ,  1-C ) :   1.3305 B(  0-C ,  6-C ) :   1.3628 B(  0-C ,  8-H ) :   0.9903
B(  1-C ,  2-C ) :   1.3621 B(  1-C ,  9-H ) :   0.9908 B(  2-C ,  3-F ) :   1.0747
B(  2-C ,  4-C ) :   1.3629 B(  4-C ,  5-C ) :   1.3305 B(  4-C , 10-H ) :   0.9903
B(  5-C ,  6-C ) :   1.3621 B(  5-C , 11-H ) :   0.9908 B(  6-C ,  7-F ) :   1.0747

Dispersion correction           -0.019551761
FINAL SINGLE POINT ENERGY      -430.421372867185

DIPOLE MOMENT
-------------
                                X             Y             Z
Electronic contribution:     -0.00000      -0.00000       0.00001
Nuclear contribution   :     -0.00000       0.00000      -0.00001
                        -----------------------------------------
Total Dipole Moment    :     -0.00000       0.00000      -0.00000
                        -----------------------------------------
Magnitude (a.u.)       :      0.00000
Magnitude (Debye)      :      0.00001

Rotational constants in cm-1:     0.187852     0.047330     0.037805
Rotational constants in MHz :  5631.663937  1418.921711  1133.365459

                             ****ORCA TERMINATED NORMALLY****
TOTAL RUN TIME: 0 days 0 hours 1 minutes 45 seconds 874 msec
