                         Program Version 4.2.0 -  RELEASE  -
|  1> # ORCA input file
|  2> # SCF done        -36.981140463107          0.000550268565
|  3> ! B3LYP/G D3BJ Opt RIJCOSX def2-SVP def2/J
|  4> * xyz 0 1
|  5>    C       -0.69539         1.20746        -0.00024
|  6>    F       -1.36066         2.36246        -0.00054
|  7>    C        0.69760         1.20735         0.00025
|  8>    F        1.36160         2.36076         0.00041
|  9>    C        1.39720         0.00278         0.00057
| 10>    F        2.73009         0.00747         0.00103
| 11>    C        0.69006        -1.19690         0.00039
| 12>    F        1.35528        -2.35192         0.00069
| 13>    C       -0.69343        -1.20895        -0.00009
| 14>    C       -1.37775        -0.00649        -0.00041
| 15>    F       -2.71063        -0.01123        -0.00087
| 16>    H       -1.23117        -2.14303        -0.00023
| 17> *
| 18>
| 19>                          ****END OF INPUT****
 Total Charge           Charge          ....    0
 Multiplicity           Mult            ....    1
 Number of Electrons    NEL             ....   82
Dispersion correction           -0.020741707
FINAL SINGLE POINT ENERGY      -727.866880051212
Dispersion correction            ... done
Dispersion correction           -0.020713996
FINAL SINGLE POINT ENERGY      -727.867307709743
Dispersion correction            ... done
Dispersion correction           -0.020709548
FINAL SINGLE POINT ENERGY      -727.867315995554
Dispersion correction            ... done
Dispersion correction           -0.020710288
FINAL SINGLE POINT ENERGY      -727.867308989666
Dispersion correction            ... done
Dispersion correction           -0.020710936
FINAL SINGLE POINT ENERGY      -727.867305281053
Dispersion correction            ... done
                    ***********************HURRAY********************

CARTESIAN COORDINATES (ANGSTROEM)
---------------------------------
  C     -0.700696    1.213611   -0.000282
  F     -1.370487    2.361793   -0.000677
  C      0.697962    1.209402    0.000294
  F      1.369533    2.354335    0.000583
  C      1.400635    0.000796    0.000516
  F      2.729024    0.008010    0.000936
  C      0.694357   -1.204331    0.000390
  F      1.383766   -2.344328    0.000730
  C     -0.697717   -1.217142   -0.000096
  C     -1.383450   -0.005607   -0.000387
  F     -2.714804    0.012670   -0.000823
  H     -1.245324   -2.159448   -0.000223

 Multiplicity           Mult            ....    1
 Number of Electrons    NEL             ....   82
 Basis Dimension        Dim             ....  159

ORBITAL ENERGIES
----------------

  NO   OCC          E(Eh)            E(eV)
   0   2.0000     -24.736072      -673.1027
   1   2.0000     -24.732467      -673.0046
   2   2.0000     -24.732108      -672.9949
   3   2.0000     -24.729880      -672.9343
   4   2.0000     -24.729825      -672.9328
   5   2.0000     -10.316109      -280.7156
   6   2.0000     -10.312295      -280.6118
   7   2.0000     -10.312176      -280.6086
   8   2.0000     -10.309658      -280.5400
   9   2.0000     -10.309026      -280.5229
  10   2.0000     -10.234586      -278.4972
  11   2.0000      -1.258260       -34.2390
  12   2.0000      -1.250379       -34.0246
  13   2.0000      -1.244578       -33.8667
  14   2.0000      -1.235926       -33.6313
  15   2.0000      -1.232868       -33.5480
  16   2.0000      -0.903834       -24.5946
  17   2.0000      -0.789828       -21.4923
  18   2.0000      -0.781780       -21.2733
  19   2.0000      -0.679849       -18.4996
  20   2.0000      -0.669136       -18.2081
  21   2.0000      -0.607244       -16.5240
  22   2.0000      -0.603234       -16.4148
  23   2.0000      -0.588729       -16.0201
  24   2.0000      -0.560232       -15.2447
  25   2.0000      -0.554759       -15.0958
  26   2.0000      -0.537128       -14.6160
  27   2.0000      -0.531169       -14.4539
  28   2.0000      -0.508749       -13.8438
  29   2.0000      -0.498056       -13.5528
  30   2.0000      -0.488809       -13.3012
  31   2.0000      -0.479581       -13.0501
  32   2.0000      -0.475380       -12.9358
  33   2.0000      -0.453541       -12.3415
  34   2.0000      -0.450596       -12.2613
  35   2.0000      -0.425343       -11.5742
  36   2.0000      -0.409138       -11.1332
  37   2.0000      -0.394104       -10.7241
  38   2.0000      -0.366618        -9.9762
  39   2.0000      -0.281940        -7.6720
  40   2.0000      -0.268308        -7.3010
  41   0.0000      -0.041447        -1.1278
  42   0.0000      -0.030301        -0.8245
  43   0.0000       0.005137         0.1398
  44   0.0000       0.086547         2.3551
  45   0.0000       0.087747         2.3877

MULLIKEN ATOMIC CHARGES
-----------------------
   0 C :    0.177643
   1 F :   -0.160158
   2 C :    0.136132
   3 F :   -0.158797
   4 C :    0.173011
   5 F :   -0.160839
   6 C :    0.229791
   7 F :   -0.172113
   8 C :   -0.131694
   9 C :    0.224040
  10 F :   -0.172643
  11 H :    0.015626
Sum of atomic charges:   -0.0000000

LOEWDIN ATOMIC CHARGES
----------------------
   0 C :    0.020346
   1 F :   -0.033487
   2 C :    0.038337
   3 F :   -0.028000
   4 C :    0.019749
   5 F :   -0.033146
   6 C :    0.058674
   7 F :   -0.040899
   8 C :   -0.073669
   9 C :    0.058278
  10 F :   -0.040744
  11 H :    0.054561

  Mayer bond orders larger than 0.100000
B(  0-C ,  1-F ) :   1.1634 B(  0-C ,  2-C ) :   1.2589 B(  0-C ,  9-C ) :   1.2827
B(  2-C ,  3-F ) :   1.1449 B(  2-C ,  4-C ) :   1.2609 B(  2-C ,  8-C ) :   0.1088
B(  4-C ,  5-F ) :   1.1601 B(  4-C ,  6-C ) :   1.2828 B(  6-C ,  7-F ) :   1.1110
B(  6-C ,  8-C ) :   1.3187 B(  8-C ,  9-C ) :   1.3203 B(  8-C , 11-H ) :   1.0180
B(  9-C , 10-F ) :   1.1086

Dispersion correction           -0.020711005
FINAL SINGLE POINT ENERGY      -727.867304550316

DIPOLE MOMENT
-------------
                                X             Y             Z
Electronic contribution:      1.65087       2.85984       0.00041
Nuclear contribution   :     -1.90396      -3.29221      -0.00048
                        -----------------------------------------
Total Dipole Moment    :     -0.25309      -0.43237      -0.00007
                        -----------------------------------------
Magnitude (a.u.)       :      0.50100
Magnitude (Debye)      :      1.27343

Rotational constants in cm-1:     0.049280     0.034089     0.020150
Rotational constants in MHz :  1477.367306  1021.965423   604.088560

                             ****ORCA TERMINATED NORMALLY****
TOTAL RUN TIME: 0 days 0 hours 2 minutes 57 seconds 703 msec
