                         Program Version 4.2.0 -  RELEASE  -
|  1> # ORCA input file
|  2> # SCF done        -11.552701906590          0.000505897874
|  3> ! B3LYP/G D3BJ Opt RIJCOSX def2-SVP def2/J
|  4> * xyz 0 1
|  5>    C        1.01712         0.07744        -0.08694
|  6>    C        2.34520         0.09134        -0.11322
|  7>    C        3.12013         0.63700        -1.20675
|  8>    C        4.44821         0.65107        -1.23290
|  9>    H        0.46473        -0.33473         0.74007
| 10>    H        0.43327         0.48190        -0.89824
| 11>    H        2.91231        -0.31968         0.71250
| 12>    H        2.55303         1.04828        -2.03234
| 13>    H        5.03205         0.24721        -0.42129
| 14>    H        5.00063         1.06380        -2.05962
| 15> *
| 16>
| 17>                          ****END OF INPUT****
 Total Charge           Charge          ....    0
 Multiplicity           Mult            ....    1
 Number of Electrons    NEL             ....   30
Dispersion correction           -0.010870702
FINAL SINGLE POINT ENERGY      -155.890722324544
Dispersion correction            ... done
Dispersion correction           -0.010789336
FINAL SINGLE POINT ENERGY      -155.892319985472
Dispersion correction            ... done
Dispersion correction           -0.010779796
FINAL SINGLE POINT ENERGY      -155.892345630619
Dispersion correction            ... done
Dispersion correction           -0.010776595
FINAL SINGLE POINT ENERGY      -155.892356552074
Dispersion correction            ... done
Dispersion correction           -0.010777526
FINAL SINGLE POINT ENERGY      -155.892360307496
Dispersion correction            ... done
                    ***********************HURRAY********************

CARTESIAN COORDINATES (ANGSTROEM)
---------------------------------
  C      0.995972    0.074137   -0.079485
  C      2.338536    0.090829   -0.110581
  C      3.126800    0.637897   -1.209163
  C      4.469364    0.654588   -1.240262
  H      0.444680   -0.348119    0.764130
  H      0.405738    0.485782   -0.904728
  H      2.902764   -0.328288    0.731938
  H      2.562573    1.057016   -2.051680
  H      5.059600    0.242940   -0.415023
  H      5.020654    1.076849   -2.083877

 Multiplicity           Mult            ....    1
 Number of Electrons    NEL             ....   30
 Basis Dimension        Dim             ....   86

ORBITAL ENERGIES
----------------

  NO   OCC          E(Eh)            E(eV)
   0   2.0000     -10.196361      -277.4571
   1   2.0000     -10.196230      -277.4535
   2   2.0000     -10.190098      -277.2867
   3   2.0000     -10.190070      -277.2859
   4   2.0000      -0.798781       -21.7359
   5   2.0000      -0.726697       -19.7744
   6   2.0000      -0.599768       -16.3205
   7   2.0000      -0.548190       -14.9170
   8   2.0000      -0.467364       -12.7176
   9   2.0000      -0.462870       -12.5953
  10   2.0000      -0.397503       -10.8166
  11   2.0000      -0.386977       -10.5302
  12   2.0000      -0.348133        -9.4732
  13   2.0000      -0.329010        -8.9528
  14   2.0000      -0.238330        -6.4853
  15   0.0000      -0.034459        -0.9377
  16   0.0000       0.069047         1.8789
  17   0.0000       0.077436         2.1071
  18   0.0000       0.085518         2.3271
  19   0.0000       0.092213         2.5092

MULLIKEN ATOMIC CHARGES
-----------------------
   0 C :   -0.030860
   1 C :   -0.003470
   2 C :   -0.003475
   3 C :   -0.030859
   4 H :    0.024266
   5 H :    0.017575
   6 H :   -0.007509
   7 H :   -0.007508
   8 H :    0.017574
   9 H :    0.024266
Sum of atomic charges:   -0.0000000

LOEWDIN ATOMIC CHARGES
----------------------
   0 C :   -0.048415
   1 C :   -0.027785
   2 C :   -0.027785
   3 C :   -0.048416
   4 H :    0.025497
   5 H :    0.022784
   6 H :    0.027921
   7 H :    0.027920
   8 H :    0.022784
   9 H :    0.025497

  Mayer bond orders larger than 0.100000
B(  0-C ,  1-C ) :   1.9123 B(  0-C ,  3-C ) :   0.1305 B(  0-C ,  4-H ) :   0.9485
B(  0-C ,  5-H ) :   0.9538 B(  1-C ,  2-C ) :   1.1176 B(  1-C ,  6-H ) :   0.9622
B(  2-C ,  3-C ) :   1.9123 B(  2-C ,  7-H ) :   0.9622 B(  3-C ,  8-H ) :   0.9538
B(  3-C ,  9-H ) :   0.9485

Dispersion correction           -0.010778538
FINAL SINGLE POINT ENERGY      -155.892361261561

DIPOLE MOMENT
-------------
                                X             Y             Z
Electronic contribution:     -0.00000      -0.00000       0.00000
Nuclear contribution   :      0.00000       0.00000      -0.00000
                        -----------------------------------------
Total Dipole Moment    :     -0.00000       0.00000       0.00000
                        -----------------------------------------
Magnitude (a.u.)       :      0.00000
Magnitude (Debye)      :      0.00001

Rotational constants in cm-1:     1.396892     0.146666     0.132730
Rotational constants in MHz : 41877.775471  4396.923640  3979.137833

                             ****ORCA TERMINATED NORMALLY****
TOTAL RUN TIME: 0 days 0 hours 0 minutes 57 seconds 878 msec
