                         Program Version 4.2.0 -  RELEASE  -
|  1> # ORCA input file
|  2> # SCF done        -28.890763649299          0.000453942226
|  3> ! B3LYP/G D3BJ Opt RIJCOSX def2-SVP def2/J
|  4> * xyz 0 1
|  5>    C        3.14905        -0.40402         0.00090
|  6>    C        2.63137         0.85081         0.00250
|  7>    C        1.22290         0.82030         0.00320
|  8>    C        0.69680        -0.46794         0.00210
|  9>    S        1.94970        -1.65386         0.00017
| 10>    C       -0.70860        -0.46871         0.00283
| 11>    C       -1.23606         0.81898         0.00448
| 12>    S       -0.00724         2.05165         0.00515
| 13>    C       -2.64455         0.84802         0.00524
| 14>    C       -3.16091        -0.40736         0.00418
| 15>    S       -1.96024        -1.65593         0.00221
| 16>    H        4.18248        -0.68786         0.00007
| 17>    H        3.21805         1.75046         0.00315
| 18>    H       -3.23217         1.74706         0.00650
| 19>    H       -4.19405        -0.69226         0.00441
| 20> *
| 21>
| 22>                          ****END OF INPUT****
 Total Charge           Charge          ....    0
 Multiplicity           Mult            ....    1
 Number of Electrons    NEL             ....  100
Dispersion correction           -0.043488395
FINAL SINGLE POINT ENERGY     -1501.302414060325
Dispersion correction            ... done
Dispersion correction           -0.043511628
FINAL SINGLE POINT ENERGY     -1501.305228380095
Dispersion correction            ... done
Dispersion correction           -0.043518103
FINAL SINGLE POINT ENERGY     -1501.305339137886
Dispersion correction            ... done
Dispersion correction           -0.043518269
FINAL SINGLE POINT ENERGY     -1501.305356306715
Dispersion correction            ... done
Dispersion correction           -0.043516535
FINAL SINGLE POINT ENERGY     -1501.305361565901
Dispersion correction            ... done
                    ***********************HURRAY********************

CARTESIAN COORDINATES (ANGSTROEM)
---------------------------------
  C      3.184771   -0.413945   -0.000202
  C      2.663991    0.856016    0.002177
  C      1.238397    0.829076    0.004207
  C      0.705316   -0.464911    0.003315
  S      1.962719   -1.660560    0.001517
  C     -0.717113   -0.465658    0.004094
  C     -1.251561    0.827758    0.005519
  S     -0.007232    2.066721    0.007294
  C     -2.677183    0.853192    0.004958
  C     -3.196628   -0.417319    0.003029
  S     -1.973252   -1.662644    0.003697
  H      4.234050   -0.705139   -0.002200
  H      3.272551    1.759911    0.002043
  H     -3.286693    1.756446    0.005490
  H     -4.245603   -0.709605    0.002153

 Multiplicity           Mult            ....    1
 Number of Electrons    NEL             ....  100
 Basis Dimension        Dim             ....  186

ORBITAL ENERGIES
----------------

  NO   OCC          E(Eh)            E(eV)
   0   2.0000     -88.881193     -2418.5802
   1   2.0000     -88.881134     -2418.5786
   2   2.0000     -88.877616     -2418.4829
   3   2.0000     -10.224814      -278.2313
   4   2.0000     -10.224599      -278.2255
   5   2.0000     -10.221195      -278.1328
   6   2.0000     -10.221168      -278.1321
   7   2.0000     -10.220698      -278.1193
   8   2.0000     -10.220697      -278.1193
   9   2.0000     -10.207556      -277.7617
  10   2.0000     -10.207552      -277.7616
  11   2.0000      -7.975565      -217.0262
  12   2.0000      -7.975513      -217.0248
  13   2.0000      -7.971614      -216.9187
  14   2.0000      -5.943977      -161.7438
  15   2.0000      -5.943957      -161.7433
  16   2.0000      -5.940218      -161.6416
  17   2.0000      -5.939908      -161.6331
  18   2.0000      -5.939896      -161.6328
  19   2.0000      -5.936592      -161.5429
  20   2.0000      -5.936379      -161.5371
  21   2.0000      -5.936376      -161.5370
  22   2.0000      -5.931691      -161.4095
  23   2.0000      -0.915555       -24.9135
  24   2.0000      -0.875147       -23.8140
  25   2.0000      -0.822384       -22.3782
  26   2.0000      -0.761939       -20.7334
  27   2.0000      -0.739023       -20.1098
  28   2.0000      -0.696003       -18.9392
  29   2.0000      -0.691925       -18.8282
  30   2.0000      -0.602818       -16.4035
  31   2.0000      -0.560627       -15.2554
  32   2.0000      -0.546568       -14.8729
  33   2.0000      -0.535955       -14.5841
  34   2.0000      -0.481251       -13.0955
  35   2.0000      -0.478493       -13.0205
  36   2.0000      -0.433369       -11.7926
  37   2.0000      -0.427192       -11.6245
  38   2.0000      -0.410813       -11.1788
  39   2.0000      -0.403952       -10.9921
  40   2.0000      -0.382190       -10.3999
  41   2.0000      -0.377908       -10.2834
  42   2.0000      -0.377237       -10.2651
  43   2.0000      -0.352856        -9.6017
  44   2.0000      -0.341073        -9.2811
  45   2.0000      -0.323560        -8.8045
  46   2.0000      -0.285570        -7.7708
  47   2.0000      -0.265922        -7.2361
  48   2.0000      -0.224660        -6.1133
  49   2.0000      -0.211756        -5.7622
  50   0.0000      -0.045908        -1.2492
  51   0.0000       0.010247         0.2788
  52   0.0000       0.020648         0.5619
  53   0.0000       0.022854         0.6219
  54   0.0000       0.044513         1.2113

MULLIKEN ATOMIC CHARGES
-----------------------
   0 C :   -0.092681
   1 C :    0.023513
   2 C :   -0.062132
   3 C :   -0.088914
   4 S :    0.129559
   5 C :   -0.088925
   6 C :   -0.062142
   7 S :    0.130823
   8 C :    0.023470
   9 C :   -0.092620
  10 S :    0.129563
  11 H :    0.032407
  12 H :   -0.007157
  13 H :   -0.007152
  14 H :    0.032389
Sum of atomic charges:   -0.0000000

LOEWDIN ATOMIC CHARGES
----------------------
   0 C :   -0.181932
   1 C :   -0.072163
   2 C :   -0.198018
   3 C :   -0.220866
   4 S :    0.416427
   5 C :   -0.220869
   6 C :   -0.198021
   7 S :    0.391010
   8 C :   -0.072163
   9 C :   -0.181920
  10 S :    0.416422
  11 H :    0.026510
  12 H :    0.034539
  13 H :    0.034540
  14 H :    0.026506

  Mayer bond orders larger than 0.100000
B(  0-C ,  1-C ) :   1.5731 B(  0-C ,  4-S ) :   1.1352 B(  0-C , 11-H ) :   0.9646
B(  1-C ,  2-C ) :   1.2618 B(  1-C , 12-H ) :   0.9950 B(  2-C ,  3-C ) :   1.4533
B(  2-C ,  7-S ) :   1.0565 B(  3-C ,  4-S ) :   1.0833 B(  3-C ,  5-C ) :   1.3098
B(  5-C ,  6-C ) :   1.4533 B(  5-C , 10-S ) :   1.0833 B(  6-C ,  7-S ) :   1.0565
B(  6-C ,  8-C ) :   1.2618 B(  8-C ,  9-C ) :   1.5731 B(  8-C , 13-H ) :   0.9951
B(  9-C , 10-S ) :   1.1352 B(  9-C , 14-H ) :   0.9646

Dispersion correction           -0.043515406
FINAL SINGLE POINT ENERGY     -1501.305361291787

DIPOLE MOMENT
-------------
                                X             Y             Z
Electronic contribution:      0.00119      -2.23755       0.00677
Nuclear contribution   :     -0.00126       2.36094      -0.00705
                        -----------------------------------------
Total Dipole Moment    :     -0.00006       0.12340      -0.00027
                        -----------------------------------------
Magnitude (a.u.)       :      0.12340
Magnitude (Debye)      :      0.31365

Rotational constants in cm-1:     0.046469     0.021850     0.014862
Rotational constants in MHz :  1393.104316   655.038190   445.543653

                             ****ORCA TERMINATED NORMALLY****
TOTAL RUN TIME: 0 days 0 hours 5 minutes 0 seconds 370 msec
