                         Program Version 4.2.0 -  RELEASE  -
|  1> # ORCA input file
|  2> # SCF done        -30.959513506175          0.000334725172
|  3> ! B3LYP/G D3BJ Opt RIJCOSX def2-SVP def2/J
|  4> * xyz 0 1
|  5>    C        3.52034        -0.01672        -0.00872
|  6>    C        2.63685        -1.03425        -0.00691
|  7>    C        1.27978        -0.59111        -0.00540
|  8>    C        1.19184         0.82345        -0.00619
|  9>    S        2.77802         1.54982        -0.00874
| 10>    C       -0.01451         1.49137        -0.00504
| 11>    C       -1.17886         0.72967        -0.00306
| 12>    C       -1.09092        -0.68489        -0.00228
| 13>    C        0.11543        -1.35282        -0.00341
| 14>    S       -2.67710        -1.41127         0.00020
| 15>    C       -3.41942         0.15527         0.00015
| 16>    C       -2.53593         1.17280        -0.00162
| 17>    H        4.59166        -0.07171        -0.01011
| 18>    H        2.91596        -2.07279        -0.00661
| 19>    H       -0.05939         2.56903        -0.00567
| 20>    H        0.16032        -2.43048        -0.00278
| 21>    H       -4.49074         0.21026         0.00147
| 22>    H       -2.81505         2.21133        -0.00193
| 23> *
| 24>
| 25>                          ****END OF INPUT****
 Total Charge           Charge          ....    0
 Multiplicity           Mult            ....    1
 Number of Electrons    NEL             ....   98
Dispersion correction           -0.047131354
FINAL SINGLE POINT ENERGY     -1180.612448115989
Dispersion correction            ... done
Dispersion correction           -0.046989038
FINAL SINGLE POINT ENERGY     -1180.615556455161
Dispersion correction            ... done
Dispersion correction           -0.046966948
FINAL SINGLE POINT ENERGY     -1180.615636585878
Dispersion correction            ... done
Dispersion correction           -0.046964157
FINAL SINGLE POINT ENERGY     -1180.615643778069
Dispersion correction            ... done
Dispersion correction           -0.046965086
FINAL SINGLE POINT ENERGY     -1180.615642651498
Dispersion correction            ... done
                    ***********************HURRAY********************

CARTESIAN COORDINATES (ANGSTROEM)
---------------------------------
  C      3.557941   -0.015053   -0.008792
  C      2.665363   -1.042231   -0.006838
  C      1.293383   -0.596318   -0.005251
  C      1.206741    0.832295   -0.006119
  S      2.805427    1.562575   -0.008287
  C     -0.015259    1.499289   -0.005184
  C     -1.192463    0.734857   -0.003261
  C     -1.105826   -0.693757   -0.002390
  C      0.116176   -1.360753   -0.003330
  S     -2.704526   -1.424008   -0.000179
  C     -3.457024    0.153618    0.000255
  C     -2.564436    1.180786   -0.001678
  H      4.645391   -0.086406   -0.010492
  H      2.957438   -2.093173   -0.006685
  H     -0.065491    2.590555   -0.005917
  H      0.166414   -2.452020   -0.002593
  H     -4.544474    0.224973    0.001933
  H     -2.856496    2.231730   -0.001841

 Multiplicity           Mult            ....    1
 Number of Electrons    NEL             ....   98
 Basis Dimension        Dim             ....  206

ORBITAL ENERGIES
----------------

  NO   OCC          E(Eh)            E(eV)
   0   2.0000     -88.870000     -2418.2756
   1   2.0000     -88.869981     -2418.2751
   2   2.0000     -10.220694      -278.1192
   3   2.0000     -10.220644      -278.1179
   4   2.0000     -10.219612      -278.0898
   5   2.0000     -10.219611      -278.0898
   6   2.0000     -10.204626      -277.6820
   7   2.0000     -10.204561      -277.6802
   8   2.0000     -10.204193      -277.6702
   9   2.0000     -10.204105      -277.6678
  10   2.0000     -10.198054      -277.5032
  11   2.0000     -10.198036      -277.5027
  12   2.0000      -7.965146      -216.7427
  13   2.0000      -7.965136      -216.7424
  14   2.0000      -5.933659      -161.4631
  15   2.0000      -5.933656      -161.4630
  16   2.0000      -5.929681      -161.3548
  17   2.0000      -5.929681      -161.3548
  18   2.0000      -5.925503      -161.2411
  19   2.0000      -5.925502      -161.2411
  20   2.0000      -0.896555       -24.3965
  21   2.0000      -0.871311       -23.7096
  22   2.0000      -0.802972       -21.8500
  23   2.0000      -0.777681       -21.1618
  24   2.0000      -0.735917       -20.0253
  25   2.0000      -0.711539       -19.3620
  26   2.0000      -0.688796       -18.7431
  27   2.0000      -0.624530       -16.9943
  28   2.0000      -0.583622       -15.8812
  29   2.0000      -0.566320       -15.4103
  30   2.0000      -0.547593       -14.9008
  31   2.0000      -0.520059       -14.1515
  32   2.0000      -0.484562       -13.1856
  33   2.0000      -0.466158       -12.6848
  34   2.0000      -0.444205       -12.0874
  35   2.0000      -0.435868       -11.8606
  36   2.0000      -0.421476       -11.4689
  37   2.0000      -0.415712       -11.3121
  38   2.0000      -0.388800       -10.5798
  39   2.0000      -0.381221       -10.3736
  40   2.0000      -0.378006       -10.2861
  41   2.0000      -0.364459        -9.9174
  42   2.0000      -0.352858        -9.6018
  43   2.0000      -0.336639        -9.1604
  44   2.0000      -0.309444        -8.4204
  45   2.0000      -0.303979        -8.2717
  46   2.0000      -0.257842        -7.0162
  47   2.0000      -0.234406        -6.3785
  48   2.0000      -0.205992        -5.6053
  49   0.0000      -0.048411        -1.3173
  50   0.0000      -0.010988        -0.2990
  51   0.0000       0.011221         0.3053
  52   0.0000       0.020503         0.5579
  53   0.0000       0.041365         1.1256

MULLIKEN ATOMIC CHARGES
-----------------------
   0 C :   -0.068636
   1 C :    0.025601
   2 C :    0.087048
   3 C :   -0.065356
   4 S :    0.089110
   5 C :   -0.051971
   6 C :    0.087043
   7 C :   -0.065338
   8 C :   -0.051967
   9 S :    0.089111
  10 C :   -0.068639
  11 C :    0.025605
  12 H :    0.032998
  13 H :   -0.016470
  14 H :   -0.032336
  15 H :   -0.032330
  16 H :    0.032998
  17 H :   -0.016471
Sum of atomic charges:    0.0000000

LOEWDIN ATOMIC CHARGES
----------------------
   0 C :   -0.166567
   1 C :   -0.062496
   2 C :   -0.046338
   3 C :   -0.155945
   4 S :    0.382250
   5 C :   -0.038616
   6 C :   -0.046338
   7 C :   -0.155946
   8 C :   -0.038616
   9 S :    0.382252
  10 C :   -0.166568
  11 C :   -0.062496
  12 H :    0.027172
  13 H :    0.030839
  14 H :    0.029701
  15 H :    0.029701
  16 H :    0.027172
  17 H :    0.030838

  Mayer bond orders larger than 0.100000
B(  0-C ,  1-C ) :   1.6208 B(  0-C ,  4-S ) :   1.1083 B(  0-C , 12-H ) :   0.9641
B(  1-C ,  2-C ) :   1.1663 B(  1-C , 13-H ) :   0.9912 B(  2-C ,  3-C ) :   1.2738
B(  2-C ,  8-C ) :   1.3287 B(  3-C ,  4-S ) :   1.0560 B(  3-C ,  5-C ) :   1.3850
B(  5-C ,  6-C ) :   1.3287 B(  5-C ,  8-C ) :   0.1076 B(  5-C , 14-H ) :   0.9961
B(  6-C ,  7-C ) :   1.2738 B(  6-C , 11-C ) :   1.1663 B(  7-C ,  8-C ) :   1.3850
B(  7-C ,  9-S ) :   1.0560 B(  8-C , 15-H ) :   0.9961 B(  9-S , 10-C ) :   1.1083
B( 10-C , 11-C ) :   1.6208 B( 10-C , 16-H ) :   0.9641 B( 11-C , 17-H ) :   0.9912

Dispersion correction           -0.046966072
FINAL SINGLE POINT ENERGY     -1180.615641212931

DIPOLE MOMENT
-------------
                                X             Y             Z
Electronic contribution:     -0.00004       0.00000       0.00009
Nuclear contribution   :      0.00004      -0.00000      -0.00009
                        -----------------------------------------
Total Dipole Moment    :      0.00000       0.00000       0.00000
                        -----------------------------------------
Magnitude (a.u.)       :      0.00000
Magnitude (Debye)      :      0.00001

Rotational constants in cm-1:     0.072032     0.015184     0.012540
Rotational constants in MHz :  2159.460225   455.192708   375.946859

                             ****ORCA TERMINATED NORMALLY****
TOTAL RUN TIME: 0 days 0 hours 6 minutes 6 seconds 719 msec
