                         Program Version 4.2.0 -  RELEASE  -
|  1> # ORCA input file
|  2> # SCF done        -32.870933574314          0.000527670938
|  3> ! B3LYP/G D3BJ Opt RIJCOSX def2-SVP def2/J
|  4> * xyz 0 1
|  5>    C       -3.12468         0.87488        -0.04387
|  6>    C       -2.77513        -0.43635         0.04287
|  7>    C       -1.37459        -0.61390         0.00631
|  8>    C       -0.68784         0.57994        -0.09709
|  9>    S       -1.76913         1.92579        -0.17169
| 10>    C        0.73642         0.55287        -0.07019
| 11>    C        1.37521        -0.66442        -0.12165
| 12>    C        0.57641        -1.91771        -0.33151
| 13>    O       -0.77143        -1.82455         0.12375
| 14>    C        2.77450        -0.54323        -0.01627
| 15>    C        3.17334         0.75063         0.11434
| 16>    S        1.85248         1.85722         0.11607
| 17>    H       -4.11016         1.29495        -0.05000
| 18>    H       -3.47050        -1.24969         0.13119
| 19>    H        1.01200        -2.75775         0.21694
| 20>    H        0.56760        -2.17423        -1.40678
| 21>    H        3.45127        -1.37812        -0.03996
| 22>    H        4.17034         1.13117         0.20833
| 23> *
| 24>
| 25>                          ****END OF INPUT****
 Total Charge           Charge          ....    0
 Multiplicity           Mult            ....    1
 Number of Electrons    NEL             ....  100
Dispersion correction           -0.045064756
FINAL SINGLE POINT ENERGY     -1217.658793996976
Dispersion correction            ... done
Dispersion correction           -0.044957394
FINAL SINGLE POINT ENERGY     -1217.661314937449
Dispersion correction            ... done
Dispersion correction           -0.044948451
FINAL SINGLE POINT ENERGY     -1217.661490073442
Dispersion correction            ... done
FINAL SINGLE POINT ENERGY     -1217.661583898452
FINAL SINGLE POINT ENERGY     -1217.661647989197
FINAL SINGLE POINT ENERGY     -1217.661724423172
FINAL SINGLE POINT ENERGY     -1217.661745668880
Dispersion correction            ... done
Dispersion correction           -0.045004672
FINAL SINGLE POINT ENERGY     -1217.661754630547
Dispersion correction            ... done
Dispersion correction           -0.045006792
FINAL SINGLE POINT ENERGY     -1217.661761742673
Dispersion correction            ... done
                    ***********************HURRAY********************

CARTESIAN COORDINATES (ANGSTROEM)
---------------------------------
  C     -3.150044    0.869381   -0.061732
  C     -2.788338   -0.448104    0.082972
  C     -1.374648   -0.613783    0.034018
  C     -0.687833    0.580768   -0.139576
  S     -1.784724    1.920689   -0.263497
  C      0.747879    0.552369   -0.088782
  C      1.392816   -0.673320   -0.124925
  C      0.564677   -1.909242   -0.359830
  O     -0.745786   -1.799702    0.216760
  C      2.804730   -0.549954    0.010855
  C      3.209988    0.757585    0.140849
  S      1.866449    1.859179    0.122569
  H     -4.154906    1.287383   -0.082750
  H     -3.487660   -1.272425    0.218816
  H      1.020513   -2.797792    0.097494
  H      0.454576   -2.104936   -1.447224
  H      3.496709   -1.393703    0.003350
  H      4.221714    1.143106    0.251422

 Multiplicity           Mult            ....    1
 Number of Electrons    NEL             ....  100
 Basis Dimension        Dim             ....  206

ORBITAL ENERGIES
----------------

  NO   OCC          E(Eh)            E(eV)
   0   2.0000     -88.878798     -2418.5150
   1   2.0000     -88.878435     -2418.5052
   2   2.0000     -19.167028      -521.5613
   3   2.0000     -10.256450      -279.0922
   4   2.0000     -10.249687      -278.9082
   5   2.0000     -10.223801      -278.2038
   6   2.0000     -10.218725      -278.0656
   7   2.0000     -10.215545      -277.9791
   8   2.0000     -10.214883      -277.9611
   9   2.0000     -10.200313      -277.5646
  10   2.0000     -10.197717      -277.4940
  11   2.0000     -10.197117      -277.4777
  12   2.0000      -7.973580      -216.9721
  13   2.0000      -7.972997      -216.9563
  14   2.0000      -5.941737      -161.6829
  15   2.0000      -5.941307      -161.6712
  16   2.0000      -5.937722      -161.5736
  17   2.0000      -5.937264      -161.5612
  18   2.0000      -5.934827      -161.4949
  19   2.0000      -5.934006      -161.4725
  20   2.0000      -1.062804       -28.9204
  21   2.0000      -0.891788       -24.2668
  22   2.0000      -0.874893       -23.8070
  23   2.0000      -0.775185       -21.0939
  24   2.0000      -0.759948       -20.6792
  25   2.0000      -0.738327       -20.0909
  26   2.0000      -0.708313       -19.2742
  27   2.0000      -0.657283       -17.8856
  28   2.0000      -0.605009       -16.4631
  29   2.0000      -0.579626       -15.7724
  30   2.0000      -0.549098       -14.9417
  31   2.0000      -0.542742       -14.7688
  32   2.0000      -0.501864       -13.6564
  33   2.0000      -0.478502       -13.0207
  34   2.0000      -0.473669       -12.8892
  35   2.0000      -0.454128       -12.3574
  36   2.0000      -0.440311       -11.9815
  37   2.0000      -0.410708       -11.1759
  38   2.0000      -0.404234       -10.9998
  39   2.0000      -0.396568       -10.7912
  40   2.0000      -0.391909       -10.6644
  41   2.0000      -0.381375       -10.3777
  42   2.0000      -0.363201        -9.8832
  43   2.0000      -0.358840        -9.7645
  44   2.0000      -0.337652        -9.1880
  45   2.0000      -0.317301        -8.6342
  46   2.0000      -0.282230        -7.6799
  47   2.0000      -0.257515        -7.0073
  48   2.0000      -0.243287        -6.6202
  49   2.0000      -0.195640        -5.3236
  50   0.0000      -0.049224        -1.3395
  51   0.0000       0.009719         0.2645
  52   0.0000       0.020139         0.5480
  53   0.0000       0.040564         1.1038
  54   0.0000       0.059569         1.6210

MULLIKEN ATOMIC CHARGES
-----------------------
   0 C :   -0.077128
   1 C :    0.015211
   2 C :    0.168335
   3 C :   -0.176610
   4 S :    0.125744
   5 C :   -0.072769
   6 C :   -0.138829
   7 C :    0.360503
   8 O :   -0.317458
   9 C :    0.023464
  10 C :   -0.086008
  11 S :    0.123241
  12 H :    0.030967
  13 H :   -0.010066
  14 H :    0.007880
  15 H :    0.013791
  16 H :   -0.017404
  17 H :    0.027136
Sum of atomic charges:   -0.0000000

LOEWDIN ATOMIC CHARGES
----------------------
   0 C :   -0.179118
   1 C :   -0.075415
   2 C :    0.019175
   3 C :   -0.248513
   4 S :    0.423714
   5 C :   -0.190200
   6 C :   -0.093372
   7 C :    0.111978
   8 O :   -0.105511
   9 C :   -0.061768
  10 C :   -0.192100
  11 S :    0.428374
  12 H :    0.026428
  13 H :    0.036063
  14 H :    0.028500
  15 H :    0.016868
  16 H :    0.029916
  17 H :    0.024981

  Mayer bond orders larger than 0.100000
B(  0-C ,  1-C ) :   1.5149 B(  0-C ,  4-S ) :   1.1583 B(  0-C , 12-H ) :   0.9668
B(  1-C ,  2-C ) :   1.2639 B(  1-C , 13-H ) :   0.9969 B(  2-C ,  3-C ) :   1.4487
B(  2-C ,  8-O ) :   1.1407 B(  3-C ,  4-S ) :   1.0862 B(  3-C ,  5-C ) :   1.1669
B(  5-C ,  6-C ) :   1.5326 B(  5-C , 11-S ) :   1.1249 B(  6-C ,  7-C ) :   1.0442
B(  6-C ,  9-C ) :   1.2718 B(  7-C ,  8-O ) :   0.9418 B(  7-C , 14-H ) :   0.9319
B(  7-C , 15-H ) :   0.9225 B(  9-C , 10-C ) :   1.5375 B(  9-C , 16-H ) :   0.9942
B( 10-C , 11-S ) :   1.1471 B( 10-C , 17-H ) :   0.9676

Dispersion correction           -0.045007481
FINAL SINGLE POINT ENERGY     -1217.661762499393

DIPOLE MOMENT
-------------
                                X             Y             Z
Electronic contribution:     -1.20163       6.77765       0.48063
Nuclear contribution   :      1.41607      -6.96902      -0.65953
                        -----------------------------------------
Total Dipole Moment    :      0.21443      -0.19136      -0.17890
                        -----------------------------------------
Magnitude (a.u.)       :      0.33854
Magnitude (Debye)      :      0.86049

Rotational constants in cm-1:     0.046141     0.021481     0.014844
Rotational constants in MHz :  1383.266844   643.973794   445.023048

                             ****ORCA TERMINATED NORMALLY****
TOTAL RUN TIME: 0 days 0 hours 10 minutes 49 seconds 517 msec
