                         Program Version 4.2.0 -  RELEASE  -
|  1> # ORCA input file
|  2> # SCF done        -13.735070155425          0.000492941684
|  3> ! B3LYP/G D3BJ Opt RIJCOSX def2-SVP def2/J
|  4> * xyz 0 1
|  5>    C       -1.32184         0.11728        -0.01427
|  6>    C       -0.40638         1.11843        -0.01903
|  7>    C        0.94093         0.68266        -0.01448
|  8>    C        1.09667        -0.66495        -0.00611
|  9>   Se       -0.52801        -1.55818        -0.00292
| 10>    H       -2.39203         0.22156        -0.01643
| 11>    H       -0.67756         2.16089        -0.02573
| 12>    H        1.77124         1.36887        -0.01747
| 13>    H        2.02523        -1.20712        -0.00153
| 14> *
| 15>
| 16>                          ****END OF INPUT****
 Total Charge           Charge          ....    0
 Multiplicity           Mult            ....    1
 Number of Electrons    NEL             ....   62
Dispersion correction           -0.016265252
FINAL SINGLE POINT ENERGY     -2556.004275795758
Dispersion correction            ... done
Dispersion correction           -0.016224886
FINAL SINGLE POINT ENERGY     -2556.005682394841
Dispersion correction            ... done
Dispersion correction           -0.016219612
FINAL SINGLE POINT ENERGY     -2556.005755589532
Dispersion correction            ... done
FINAL SINGLE POINT ENERGY     -2556.005772456869
Dispersion correction            ... done
Dispersion correction           -0.016217227
FINAL SINGLE POINT ENERGY     -2556.005777447298
Dispersion correction            ... done
Dispersion correction           -0.016218107
FINAL SINGLE POINT ENERGY     -2556.005780829963
Dispersion correction            ... done
                    ***********************HURRAY********************

CARTESIAN COORDINATES (ANGSTROEM)
---------------------------------
  C     -1.341203    0.119933   -0.014425
  C     -0.413866    1.124787   -0.019048
  C      0.951699    0.684144   -0.014487
  C      1.115296   -0.673233   -0.006066
  Se    -0.530071   -1.564775   -0.003589
  H     -2.425725    0.222996   -0.015917
  H     -0.697658    2.179669   -0.025991
  H      1.797524    1.374733   -0.017676
  H      2.052255   -1.228814   -0.000772

 Multiplicity           Mult            ....    1
 Number of Electrons    NEL             ....   62
 Basis Dimension        Dim             ....  108

ORBITAL ENERGIES
----------------

  NO   OCC          E(Eh)            E(eV)
   0   2.0000    -453.844828    -12349.7456
   1   2.0000     -58.067097     -1580.0860
   2   2.0000     -52.135134     -1418.6691
   3   2.0000     -52.134184     -1418.6433
   4   2.0000     -52.133523     -1418.6253
   5   2.0000     -10.210039      -277.8293
   6   2.0000     -10.209896      -277.8254
   7   2.0000     -10.193125      -277.3690
   8   2.0000     -10.192871      -277.3621
   9   2.0000      -7.831084      -213.0946
  10   2.0000      -5.777947      -157.2259
  11   2.0000      -5.774215      -157.1244
  12   2.0000      -5.769719      -157.0020
  13   2.0000      -2.131115       -57.9906
  14   2.0000      -2.130464       -57.9729
  15   2.0000      -2.126256       -57.8584
  16   2.0000      -2.123160       -57.7741
  17   2.0000      -2.122897       -57.7670
  18   2.0000      -0.849043       -23.1036
  19   2.0000      -0.712646       -19.3921
  20   2.0000      -0.711706       -19.3665
  21   2.0000      -0.562428       -15.3045
  22   2.0000      -0.534714       -14.5503
  23   2.0000      -0.507034       -13.7971
  24   2.0000      -0.413107       -11.2412
  25   2.0000      -0.396574       -10.7913
  26   2.0000      -0.367264        -9.9938
  27   2.0000      -0.364782        -9.9262
  28   2.0000      -0.332542        -9.0489
  29   2.0000      -0.242277        -6.5927
  30   2.0000      -0.239764        -6.5243
  31   0.0000      -0.023332        -0.6349
  32   0.0000       0.012736         0.3466
  33   0.0000       0.060513         1.6467
  34   0.0000       0.070183         1.9098
  35   0.0000       0.084739         2.3059

MULLIKEN ATOMIC CHARGES
-----------------------
   0 C :   -0.132576
   1 C :    0.026485
   2 C :    0.025338
   3 C :   -0.126840
   4 Se:    0.153537
   5 H :    0.031815
   6 H :   -0.003830
   7 H :   -0.002155
   8 H :    0.028227
Sum of atomic charges:   -0.0000000

LOEWDIN ATOMIC CHARGES
----------------------
   0 C :   -0.174124
   1 C :   -0.065856
   2 C :   -0.065796
   3 C :   -0.172542
   4 Se:    0.366955
   5 H :    0.026382
   6 H :    0.029382
   7 H :    0.029877
   8 H :    0.025722

  Mayer bond orders larger than 0.100000
B(  0-C ,  1-C ) :   1.6100 B(  0-C ,  4-Se) :   1.1549 B(  0-C ,  5-H ) :   0.9637
B(  1-C ,  2-C ) :   1.2399 B(  1-C ,  6-H ) :   0.9860 B(  2-C ,  3-C ) :   1.6124
B(  2-C ,  7-H ) :   0.9849 B(  3-C ,  4-Se) :   1.1537 B(  3-C ,  8-H ) :   0.9640

Dispersion correction           -0.016218310
FINAL SINGLE POINT ENERGY     -2556.005780788076

DIPOLE MOMENT
-------------
                                X             Y             Z
Electronic contribution:     -4.24111     -13.12166       0.06878
Nuclear contribution   :      4.27063      13.20708      -0.06923
                        -----------------------------------------
Total Dipole Moment    :      0.02952       0.08542      -0.00045
                        -----------------------------------------
Magnitude (a.u.)       :      0.09038
Magnitude (Debye)      :      0.22972

Rotational constants in cm-1:     0.251545     0.112113     0.077550
Rotational constants in MHz :  7541.136596  3361.075038  2324.879345

                             ****ORCA TERMINATED NORMALLY****
TOTAL RUN TIME: 0 days 0 hours 2 minutes 2 seconds 391 msec
