                         Program Version 4.2.0 -  RELEASE  -
|  1> # ORCA input file
|  2> # SCF done        -24.474906751067          0.000588900119
|  3> ! B3LYP/G D3BJ Opt RIJCOSX def2-SVP def2/J
|  4> * xyz 0 1
|  5>    C       -0.93742        -1.37077         0.00059
|  6>    N       -2.04674        -0.69072        -0.00028
|  7>    N       -2.06526         0.62937        -0.00134
|  8>    C       -0.97546         1.34028        -0.00160
|  9>    C        0.29240         0.71946        -0.00073
| 10>    C        0.31252        -0.71463         0.00042
| 11>    N        1.55505        -1.19926         0.00117
| 12>    S        2.57939         0.03437         0.00048
| 13>    N        1.52084         1.23877        -0.00080
| 14>    H       -1.01702        -2.44752         0.00142
| 15>    H       -1.08524         2.41437        -0.00249
| 16> *
| 17>
| 18>                          ****END OF INPUT****
 Total Charge           Charge          ....    0
 Multiplicity           Mult            ....    1
 Number of Electrons    NEL             ....   70
Dispersion correction           -0.024284612
FINAL SINGLE POINT ENERGY      -770.380021267094
Dispersion correction            ... done
Dispersion correction           -0.024195456
FINAL SINGLE POINT ENERGY      -770.383903377700
Dispersion correction            ... done
Dispersion correction           -0.024187240
FINAL SINGLE POINT ENERGY      -770.384612942270
Dispersion correction            ... done
FINAL SINGLE POINT ENERGY      -770.384814316348
FINAL SINGLE POINT ENERGY      -770.384846496510
FINAL SINGLE POINT ENERGY      -770.384851957931
Dispersion correction            ... done
Dispersion correction           -0.024205551
FINAL SINGLE POINT ENERGY      -770.384854455259
Dispersion correction            ... done
Dispersion correction           -0.024204362
FINAL SINGLE POINT ENERGY      -770.384855503965
Dispersion correction            ... done
                    ***********************HURRAY********************

CARTESIAN COORDINATES (ANGSTROEM)
---------------------------------
  C     -0.942724   -1.380477    0.000575
  N     -2.067192   -0.715261   -0.000277
  N     -2.086408    0.653414   -0.001339
  C     -0.980906    1.349763   -0.001603
  C      0.304285    0.721005   -0.000751
  C      0.324541   -0.716090    0.000414
  N      1.553078   -1.239516    0.001206
  S      2.590400    0.034706    0.000485
  N      1.517300    1.279036   -0.000816
  H     -1.005359   -2.473756    0.001463
  H     -1.073956    2.440895   -0.002517

 Multiplicity           Mult            ....    1
 Number of Electrons    NEL             ....   70
 Basis Dimension        Dim             ....  140

ORBITAL ENERGIES
----------------

  NO   OCC          E(Eh)            E(eV)
   0   2.0000     -88.967689     -2420.9339
   1   2.0000     -14.391535      -391.6136
   2   2.0000     -14.391468      -391.6118
   3   2.0000     -14.371890      -391.0790
   4   2.0000     -14.371736      -391.0748
   5   2.0000     -10.270463      -279.4735
   6   2.0000     -10.270213      -279.4667
   7   2.0000     -10.259322      -279.1704
   8   2.0000     -10.259189      -279.1667
   9   2.0000      -8.058833      -219.2920
  10   2.0000      -6.028617      -164.0470
  11   2.0000      -6.021412      -163.8509
  12   2.0000      -6.020298      -163.8206
  13   2.0000      -1.052005       -28.6265
  14   2.0000      -1.016254       -27.6537
  15   2.0000      -0.917337       -24.9620
  16   2.0000      -0.847429       -23.0597
  17   2.0000      -0.824139       -22.4260
  18   2.0000      -0.701708       -19.0944
  19   2.0000      -0.664237       -18.0748
  20   2.0000      -0.640578       -17.4310
  21   2.0000      -0.562412       -15.3040
  22   2.0000      -0.540888       -14.7183
  23   2.0000      -0.491286       -13.3686
  24   2.0000      -0.491181       -13.3657
  25   2.0000      -0.481040       -13.0898
  26   2.0000      -0.426381       -11.6024
  27   2.0000      -0.423883       -11.5344
  28   2.0000      -0.370662       -10.0862
  29   2.0000      -0.370637       -10.0855
  30   2.0000      -0.332740        -9.0543
  31   2.0000      -0.315354        -8.5812
  32   2.0000      -0.314808        -8.5664
  33   2.0000      -0.297047        -8.0831
  34   2.0000      -0.252300        -6.8654
  35   0.0000      -0.124691        -3.3930
  36   0.0000      -0.044424        -1.2088
  37   0.0000      -0.024201        -0.6585
  38   0.0000      -0.009038        -0.2459
  39   0.0000       0.055764         1.5174

MULLIKEN ATOMIC CHARGES
-----------------------
   0 C :    0.015582
   1 N :   -0.056752
   2 N :   -0.057262
   3 C :    0.016280
   4 C :    0.035424
   5 C :    0.035428
   6 N :   -0.261927
   7 S :    0.501915
   8 N :   -0.261716
   9 H :    0.016583
  10 H :    0.016444
Sum of atomic charges:   -0.0000000

LOEWDIN ATOMIC CHARGES
----------------------
   0 C :    0.015914
   1 N :   -0.043040
   2 N :   -0.043116
   3 C :    0.016058
   4 C :   -0.072858
   5 C :   -0.072819
   6 N :   -0.260627
   7 S :    0.644971
   8 N :   -0.260537
   9 H :    0.038030
  10 H :    0.038023

  Mayer bond orders larger than 0.100000
B(  0-C ,  1-N ) :   1.7669 B(  0-C ,  5-C ) :   1.1174 B(  0-C ,  9-H ) :   0.9939
B(  1-N ,  2-N ) :   1.1327 B(  2-N ,  3-C ) :   1.7663 B(  3-C ,  4-C ) :   1.1182
B(  3-C , 10-H ) :   0.9936 B(  4-C ,  5-C ) :   1.1926 B(  4-C ,  8-N ) :   1.4947
B(  5-C ,  6-N ) :   1.4946 B(  6-N ,  7-S ) :   1.2619 B(  6-N ,  8-N ) :   0.1612
B(  7-S ,  8-N ) :   1.2620

Dispersion correction           -0.024204287
FINAL SINGLE POINT ENERGY      -770.384855671856

DIPOLE MOMENT
-------------
                                X             Y             Z
Electronic contribution:      3.97088       0.05632       0.00107
Nuclear contribution   :     -2.71141      -0.03814      -0.00075
                        -----------------------------------------
Total Dipole Moment    :      1.25948       0.01818       0.00032
                        -----------------------------------------
Magnitude (a.u.)       :      1.25961
Magnitude (Debye)      :      3.20167

Rotational constants in cm-1:     0.132830     0.041059     0.031364
Rotational constants in MHz :  3982.150559  1230.908166   940.265955

                             ****ORCA TERMINATED NORMALLY****
TOTAL RUN TIME: 0 days 0 hours 4 minutes 34 seconds 783 msec
