                         Program Version 4.2.0 -  RELEASE  -
|  1> # ORCA input file
|  2> # SCF done        -27.567590639546          0.000917020375
|  3> ! B3LYP/G D3BJ Opt RIJCOSX def2-SVP def2/J
|  4> * xyz 0 1
|  5>    C       -0.76321        -0.97416        -0.36887
|  6>    S       -1.44008         0.64769        -0.33953
|  7>    C        0.16743         1.37675        -0.05578
|  8>    O        0.36339         2.54973         0.05888
|  9>    N        1.11185         0.38404         0.00553
| 10>    C        0.70232        -0.92259        -0.15205
| 11>    O        1.44549        -1.86979        -0.11744
| 12>    C        2.50766         0.69894         0.22945
| 13>    C       -1.43490        -2.10618        -0.55681
| 14>    H        2.62323         1.78026         0.20322
| 15>    H        3.11010         0.23146        -0.54924
| 16>    H        2.82263         0.31188         1.19926
| 17>    H       -2.49795        -2.12605        -0.71475
| 18>    H       -0.90014        -3.04163        -0.55172
| 19> *
| 20>
| 21>                          ****END OF INPUT****
 Total Charge           Charge          ....    0
 Multiplicity           Mult            ....    1
 Number of Electrons    NEL             ....   74
Dispersion correction           -0.027496323
FINAL SINGLE POINT ENERGY      -796.571547667611
Dispersion correction            ... done
Dispersion correction           -0.027325817
FINAL SINGLE POINT ENERGY      -796.573268472920
Dispersion correction            ... done
Dispersion correction           -0.027297672
FINAL SINGLE POINT ENERGY      -796.573352829796
Dispersion correction            ... done
FINAL SINGLE POINT ENERGY      -796.573354187414
Dispersion correction            ... done
Dispersion correction           -0.027297430
FINAL SINGLE POINT ENERGY      -796.573349496685
Dispersion correction            ... done
Dispersion correction           -0.027300356
FINAL SINGLE POINT ENERGY      -796.573353756339
Dispersion correction            ... done
                    ***********************HURRAY********************

CARTESIAN COORDINATES (ANGSTROEM)
---------------------------------
  C     -0.791268   -0.964094   -0.371140
  S     -1.469916    0.668705   -0.340004
  C      0.162414    1.391806   -0.062179
  O      0.370609    2.568306    0.054710
  N      1.122834    0.386512   -0.008985
  C      0.693204   -0.927942   -0.156772
  O      1.427182   -1.888384   -0.112035
  C      2.522729    0.699209    0.230651
  C     -1.445221   -2.117196   -0.553761
  H      2.629786    1.790145    0.225723
  H      3.144927    0.247819   -0.553698
  H      2.842960    0.294238    1.202446
  H     -2.523559   -2.163494   -0.716102
  H     -0.868862   -3.045280   -0.548702

 Multiplicity           Mult            ....    1
 Number of Electrons    NEL             ....   74
 Basis Dimension        Dim             ....  155

ORBITAL ENERGIES
----------------

  NO   OCC          E(Eh)            E(eV)
   0   2.0000     -88.884229     -2418.6628
   1   2.0000     -19.148354      -521.0532
   2   2.0000     -19.139991      -520.8256
   3   2.0000     -14.402486      -391.9116
   4   2.0000     -10.339137      -281.3422
   5   2.0000     -10.323208      -280.9088
   6   2.0000     -10.249292      -278.8974
   7   2.0000     -10.242328      -278.7079
   8   2.0000     -10.225030      -278.2372
   9   2.0000      -7.980869      -217.1705
  10   2.0000      -5.949337      -161.8897
  11   2.0000      -5.945958      -161.7977
  12   2.0000      -5.940182      -161.6406
  13   2.0000      -1.082787       -29.4641
  14   2.0000      -1.060459       -28.8566
  15   2.0000      -0.969980       -26.3945
  16   2.0000      -0.853353       -23.2209
  17   2.0000      -0.763372       -20.7724
  18   2.0000      -0.726995       -19.7825
  19   2.0000      -0.675862       -18.3911
  20   2.0000      -0.610355       -16.6086
  21   2.0000      -0.558703       -15.2031
  22   2.0000      -0.507077       -13.7983
  23   2.0000      -0.506514       -13.7829
  24   2.0000      -0.483051       -13.1445
  25   2.0000      -0.465641       -12.6707
  26   2.0000      -0.451537       -12.2869
  27   2.0000      -0.428980       -11.6731
  28   2.0000      -0.427286       -11.6271
  29   2.0000      -0.420287       -11.4366
  30   2.0000      -0.418938       -11.3999
  31   2.0000      -0.384241       -10.4557
  32   2.0000      -0.345987        -9.4148
  33   2.0000      -0.312966        -8.5162
  34   2.0000      -0.298243        -8.1156
  35   2.0000      -0.284445        -7.7401
  36   2.0000      -0.258008        -7.0208
  37   0.0000      -0.077868        -2.1189
  38   0.0000       0.000772         0.0210
  39   0.0000       0.001241         0.0338
  40   0.0000       0.058908         1.6030
  41   0.0000       0.065442         1.7808

MULLIKEN ATOMIC CHARGES
-----------------------
   0 C :   -0.175132
   1 S :    0.059575
   2 C :    0.155073
   3 O :   -0.185134
   4 N :   -0.277786
   5 C :    0.236242
   6 O :   -0.187227
   7 C :    0.134416
   8 C :    0.003354
   9 H :    0.054448
  10 H :    0.046770
  11 H :    0.041991
  12 H :    0.037593
  13 H :    0.055818
Sum of atomic charges:   -0.0000000

LOEWDIN ATOMIC CHARGES
----------------------
   0 C :   -0.199359
   1 S :    0.324611
   2 C :   -0.043788
   3 O :   -0.162303
   4 N :   -0.048034
   5 C :    0.071188
   6 O :   -0.164931
   7 C :    0.045595
   8 C :   -0.010750
   9 H :    0.037541
  10 H :    0.035699
  11 H :    0.034108
  12 H :    0.035245
  13 H :    0.045179

  Mayer bond orders larger than 0.100000
B(  0-C ,  1-S ) :   1.0161 B(  0-C ,  5-C ) :   0.9125 B(  0-C ,  8-C ) :   1.9543
B(  1-S ,  2-C ) :   0.9840 B(  1-S ,  3-O ) :   0.1019 B(  2-C ,  3-O ) :   2.0928
B(  2-C ,  4-N ) :   1.0482 B(  4-N ,  5-C ) :   1.0636 B(  4-N ,  7-C ) :   0.9372
B(  5-C ,  6-O ) :   2.1508 B(  7-C ,  9-H ) :   0.9614 B(  7-C , 10-H ) :   0.9710
B(  7-C , 11-H ) :   0.9745 B(  8-C , 12-H ) :   0.9417 B(  8-C , 13-H ) :   0.9308

Dispersion correction           -0.027302380
FINAL SINGLE POINT ENERGY      -796.573355036571

DIPOLE MOMENT
-------------
                                X             Y             Z
Electronic contribution:     -4.59418       2.68725      -0.46961
Nuclear contribution   :      4.44120      -3.09277       0.40739
                        -----------------------------------------
Total Dipole Moment    :     -0.15298      -0.40552      -0.06223
                        -----------------------------------------
Magnitude (a.u.)       :      0.43786
Magnitude (Debye)      :      1.11295

Rotational constants in cm-1:     0.064859     0.053005     0.029331
Rotational constants in MHz :  1944.428239  1589.051620   879.324012

                             ****ORCA TERMINATED NORMALLY****
TOTAL RUN TIME: 0 days 0 hours 4 minutes 19 seconds 451 msec
