                         Program Version 4.2.0 -  RELEASE  -
|  1> # ORCA input file
|  2> # SCF done        -62.953648839705          0.000841801279
|  3> ! B3LYP/G D3BJ Opt RIJCOSX def2-SVP def2/J
|  4> * xyz 0 1
|  5>    C        3.50609        -0.40341        -0.10185
|  6>    C        2.54005        -1.34267        -0.12290
|  7>    C        1.22487        -0.78896        -0.09713
|  8>    C       -0.00454        -1.46951        -0.09966
|  9>    C       -0.05965        -2.91720        -0.03282
| 10>    C        0.66011        -3.74718         0.77827
| 11>    C        0.35770        -5.11142         0.59092
| 12>    C       -0.58458        -5.32994        -0.36534
| 13>    S       -1.13274        -3.83494        -1.05269
| 14>    C       -1.15101        -6.62365        -0.82930
| 15>    C       -1.14952        -0.68008        -0.15148
| 16>    C       -1.11730         0.73315        -0.14192
| 17>    C        0.11061         1.41317        -0.07859
| 18>    C        1.25684         0.62422        -0.08688
| 19>    S        2.89773         1.21503        -0.05363
| 20>    C        0.16238         2.86005         0.00816
| 21>    C       -0.58993         3.68011         0.79952
| 22>    C       -0.28065         5.04652         0.64104
| 23>    C        0.69925         5.27635        -0.27401
| 24>    S        1.27539         3.78970        -0.95649
| 25>    C        1.28455         6.57529        -0.69784
| 26>    C       -2.42973         1.28822        -0.22136
| 27>    C       -3.39574         0.34934        -0.25774
| 28>    S       -2.79033        -1.27008        -0.20215
| 29>    H        4.56859        -0.54958        -0.11910
| 30>    H        2.73514        -2.39785        -0.17848
| 31>    H        1.35672        -3.38833         1.51514
| 32>    H        0.82527        -5.90283         1.15000
| 33>    H       -0.60765        -7.45083        -0.37913
| 34>    H       -1.08704        -6.70616        -1.91312
| 35>    H       -2.20183        -6.70353        -0.55129
| 36>    H       -1.31602         3.31219         1.50284
| 37>    H       -0.77052         5.83129         1.19048
| 38>    H        0.70070         7.39728        -0.29125
| 39>    H        1.30136         6.65503        -1.78344
| 40>    H        2.31058         6.66719        -0.34192
| 41>    H       -2.62155         2.34428        -0.27146
| 42>    H       -4.45635         0.49631        -0.32247
| 43> *
| 44>
| 45>                          ****END OF INPUT****
 Total Charge           Charge          ....    0
 Multiplicity           Mult            ....    1
 Number of Electrons    NEL             ....  198
Dispersion correction           -0.112685726
FINAL SINGLE POINT ENERGY     -2362.438233730245
Dispersion correction            ... done
Dispersion correction           -0.111627534
FINAL SINGLE POINT ENERGY     -2362.445384916829
Dispersion correction            ... done
Dispersion correction           -0.111555222
FINAL SINGLE POINT ENERGY     -2362.445657194973
Dispersion correction            ... done
FINAL SINGLE POINT ENERGY     -2362.445652553156
FINAL SINGLE POINT ENERGY     -2362.445585758027
FINAL SINGLE POINT ENERGY     -2362.445579432578
FINAL SINGLE POINT ENERGY     -2362.445583409379
Dispersion correction            ... done
Dispersion correction           -0.111624446
FINAL SINGLE POINT ENERGY     -2362.445559998197
Dispersion correction            ... done
Dispersion correction           -0.111622582
FINAL SINGLE POINT ENERGY     -2362.445524492258
Dispersion correction            ... done
                    ***********************HURRAY********************

CARTESIAN COORDINATES (ANGSTROEM)
---------------------------------
  C      3.537115   -0.477125   -0.190070
  C      2.542147   -1.403166   -0.215931
  C      1.224425   -0.815859   -0.188423
  C     -0.026161   -1.481354   -0.176314
  C     -0.086572   -2.942246   -0.055665
  C      0.618662   -3.742196    0.819261
  C      0.333826   -5.130532    0.674167
  C     -0.588469   -5.403673   -0.308464
  S     -1.115030   -3.929738   -1.073944
  C     -1.124188   -6.735762   -0.732267
  C     -1.168039   -0.666506   -0.237823
  C     -1.104231    0.760563   -0.237537
  C      0.143870    1.425089   -0.152003
  C      1.287495    0.611029   -0.165961
  S      2.957286    1.168264   -0.128343
  C      0.197108    2.884337   -0.008848
  C     -0.546481    3.670667    0.846175
  C     -0.262227    5.061858    0.729001
  C      0.695657    5.350340   -0.214257
  S      1.261297    3.887400   -0.973449
  C      1.236908    6.690289   -0.604870
  C     -2.418651    1.349563   -0.325971
  C     -3.413828    0.424225   -0.362415
  S     -2.838110   -1.222297   -0.292879
  H      4.609486   -0.669511   -0.220858
  H      2.722244   -2.475670   -0.275167
  H      1.301635   -3.331618    1.563051
  H      0.790808   -5.911954    1.283240
  H     -0.632292   -7.531831   -0.155720
  H     -0.941796   -6.931920   -1.802200
  H     -2.211044   -6.815674   -0.559431
  H     -1.258488    3.247481    1.554893
  H     -0.746602    5.834587    1.327905
  H      0.732056    7.475751   -0.025098
  H      1.075081    6.903649   -1.674914
  H      2.319856    6.769592   -0.409232
  H     -2.594494    2.423028   -0.380760
  H     -4.483008    0.617485   -0.447950

 Multiplicity           Mult            ....    1
 Number of Electrons    NEL             ....  198
 Basis Dimension        Dim             ....  422

ORBITAL ENERGIES
----------------

  NO   OCC          E(Eh)            E(eV)
   0   2.0000     -88.868672     -2418.2395
   1   2.0000     -88.868667     -2418.2394
   2   2.0000     -88.866734     -2418.1868
   3   2.0000     -88.866672     -2418.1851
   4   2.0000     -10.219033      -278.0740
   5   2.0000     -10.218921      -278.0710
   6   2.0000     -10.216745      -278.0118
   7   2.0000     -10.216630      -278.0086
   8   2.0000     -10.216600      -278.0078
   9   2.0000     -10.216554      -278.0066
  10   2.0000     -10.214054      -277.9385
  11   2.0000     -10.213957      -277.9359
  12   2.0000     -10.212940      -277.9082
  13   2.0000     -10.212803      -277.9045
  14   2.0000     -10.203012      -277.6381
  15   2.0000     -10.202927      -277.6358
  16   2.0000     -10.201505      -277.5971
  17   2.0000     -10.201433      -277.5951
  18   2.0000     -10.192338      -277.3476
  19   2.0000     -10.192309      -277.3468
  20   2.0000     -10.191318      -277.3199
  21   2.0000     -10.191315      -277.3198
  22   2.0000     -10.189138      -277.2605
  23   2.0000     -10.189134      -277.2604
  24   2.0000      -7.963663      -216.7023
  25   2.0000      -7.963662      -216.7023
  26   2.0000      -7.961479      -216.6429
  27   2.0000      -7.961417      -216.6412
  28   2.0000      -5.931752      -161.4112
  29   2.0000      -5.931751      -161.4112
  30   2.0000      -5.930011      -161.3638
  31   2.0000      -5.929953      -161.3622
  32   2.0000      -5.927683      -161.3004
  33   2.0000      -5.927682      -161.3004
  34   2.0000      -5.925872      -161.2512
  35   2.0000      -5.925810      -161.2495
  36   2.0000      -5.925014      -161.2278
  37   2.0000      -5.925010      -161.2277
  38   2.0000      -5.921963      -161.1448
  39   2.0000      -5.921901      -161.1431
  40   2.0000      -0.901168       -24.5220
  41   2.0000      -0.880230       -23.9523
  42   2.0000      -0.873347       -23.7650
  43   2.0000      -0.868119       -23.6227
  44   2.0000      -0.806169       -21.9370
  45   2.0000      -0.801256       -21.8033
  46   2.0000      -0.758869       -20.6499
  47   2.0000      -0.748073       -20.3561
  48   2.0000      -0.738728       -20.1018
  49   2.0000      -0.728124       -19.8133
  50   2.0000      -0.724128       -19.7045
  51   2.0000      -0.708191       -19.2709
  52   2.0000      -0.697245       -18.9730
  53   2.0000      -0.685926       -18.6650
  54   2.0000      -0.655378       -17.8337
  55   2.0000      -0.621241       -16.9048
  56   2.0000      -0.587397       -15.9839
  57   2.0000      -0.570692       -15.5293
  58   2.0000      -0.554232       -15.0814
  59   2.0000      -0.545834       -14.8529
  60   2.0000      -0.536992       -14.6123
  61   2.0000      -0.533066       -14.5055
  62   2.0000      -0.530512       -14.4360
  63   2.0000      -0.516070       -14.0430
  64   2.0000      -0.497394       -13.5348
  65   2.0000      -0.492406       -13.3990
  66   2.0000      -0.455933       -12.4066
  67   2.0000      -0.455843       -12.4041
  68   2.0000      -0.432070       -11.7572
  69   2.0000      -0.431869       -11.7518
  70   2.0000      -0.430830       -11.7235
  71   2.0000      -0.430103       -11.7037
  72   2.0000      -0.425257       -11.5718
  73   2.0000      -0.420689       -11.4475
  74   2.0000      -0.415818       -11.3150
  75   2.0000      -0.407576       -11.0907
  76   2.0000      -0.393167       -10.6986
  77   2.0000      -0.392763       -10.6876
  78   2.0000      -0.385353       -10.4860
  79   2.0000      -0.378660       -10.3039
  80   2.0000      -0.377189       -10.2638
  81   2.0000      -0.375508       -10.2181
  82   2.0000      -0.374466       -10.1897
  83   2.0000      -0.370240       -10.0747
  84   2.0000      -0.364780        -9.9262
  85   2.0000      -0.354334        -9.6419
  86   2.0000      -0.353910        -9.6304
  87   2.0000      -0.339430        -9.2364
  88   2.0000      -0.335514        -9.1298
  89   2.0000      -0.330833        -9.0024
  90   2.0000      -0.305306        -8.3078
  91   2.0000      -0.301860        -8.2140
  92   2.0000      -0.256393        -6.9768
  93   2.0000      -0.252236        -6.8637
  94   2.0000      -0.251123        -6.8334
  95   2.0000      -0.237196        -6.4544
  96   2.0000      -0.230983        -6.2854
  97   2.0000      -0.230287        -6.2664
  98   2.0000      -0.191013        -5.1977
  99   0.0000      -0.058996        -1.6053
 100   0.0000      -0.027818        -0.7570
 101   0.0000      -0.018286        -0.4976
 102   0.0000       0.004570         0.1243
 103   0.0000       0.014469         0.3937

MULLIKEN ATOMIC CHARGES
-----------------------
   0 C :   -0.062608
   1 C :    0.004113
   2 C :    0.053600
   3 C :    0.106677
   4 C :   -0.218558
   5 C :    0.036197
   6 C :    0.019026
   7 C :   -0.209353
   8 S :    0.125395
   9 C :    0.115291
  10 C :   -0.135968
  11 C :    0.053868
  12 C :    0.104219
  13 C :   -0.135009
  14 S :    0.104808
  15 C :   -0.217738
  16 C :    0.035174
  17 C :    0.019472
  18 C :   -0.210163
  19 S :    0.126064
  20 C :    0.115752
  21 C :    0.003509
  22 C :   -0.061728
  23 S :    0.104385
  24 H :    0.026557
  25 H :   -0.006717
  26 H :   -0.010146
  27 H :   -0.025880
  28 H :    0.012651
  29 H :    0.030568
  30 H :    0.034640
  31 H :   -0.010096
  32 H :   -0.025709
  33 H :    0.012787
  34 H :    0.031023
  35 H :    0.033542
  36 H :   -0.005935
  37 H :    0.026291
Sum of atomic charges:    0.0000000

LOEWDIN ATOMIC CHARGES
----------------------
   0 C :   -0.170309
   1 C :   -0.063521
   2 C :   -0.038706
   3 C :   -0.053344
   4 C :   -0.179951
   5 C :   -0.057433
   6 C :   -0.075428
   7 C :   -0.179761
   8 S :    0.417107
   9 C :   -0.057808
  10 C :   -0.153232
  11 C :   -0.038748
  12 C :   -0.053592
  13 C :   -0.153154
  14 S :    0.388972
  15 C :   -0.180039
  16 C :   -0.057590
  17 C :   -0.075450
  18 C :   -0.179786
  19 S :    0.417070
  20 C :   -0.057667
  21 C :   -0.063475
  22 C :   -0.170312
  23 S :    0.388706
  24 H :    0.026201
  25 H :    0.032348
  26 H :    0.030488
  27 H :    0.026209
  28 H :    0.036256
  29 H :    0.035500
  30 H :    0.036717
  31 H :    0.030523
  32 H :    0.026223
  33 H :    0.036259
  34 H :    0.035570
  35 H :    0.036488
  36 H :    0.032505
  37 H :    0.026165

  Mayer bond orders larger than 0.100000
B(  0-C ,  1-C ) :   1.6085 B(  0-C , 14-S ) :   1.1002 B(  0-C , 24-H ) :   0.9628
B(  1-C ,  2-C ) :   1.1862 B(  1-C , 25-H ) :   0.9833 B(  2-C ,  3-C ) :   1.3318
B(  2-C , 13-C ) :   1.2652 B(  3-C ,  4-C ) :   1.0016 B(  3-C , 10-C ) :   1.3949
B(  4-C ,  5-C ) :   1.5486 B(  4-C ,  7-C ) :   0.1051 B(  4-C ,  8-S ) :   1.1273
B(  5-C ,  6-C ) :   1.2216 B(  5-C , 26-H ) :   0.9920 B(  6-C ,  7-C ) :   1.5741
B(  6-C , 27-H ) :   0.9865 B(  7-C ,  8-S ) :   1.1316 B(  7-C ,  9-C ) :   1.0825
B(  9-C , 28-H ) :   0.9525 B(  9-C , 29-H ) :   0.9500 B(  9-C , 30-H ) :   0.9490
B( 10-C , 11-C ) :   1.2649 B( 10-C , 23-S ) :   1.0696 B( 11-C , 12-C ) :   1.3333
B( 11-C , 21-C ) :   1.1861 B( 12-C , 13-C ) :   1.3960 B( 12-C , 15-C ) :   0.9998
B( 13-C , 14-S ) :   1.0696 B( 15-C , 16-C ) :   1.5494 B( 15-C , 18-C ) :   0.1052
B( 15-C , 19-S ) :   1.1276 B( 16-C , 17-C ) :   1.2210 B( 16-C , 31-H ) :   0.9925
B( 17-C , 18-C ) :   1.5742 B( 17-C , 32-H ) :   0.9865 B( 18-C , 19-S ) :   1.1316
B( 18-C , 20-C ) :   1.0824 B( 20-C , 33-H ) :   0.9526 B( 20-C , 34-H ) :   0.9502
B( 20-C , 35-H ) :   0.9489 B( 21-C , 22-C ) :   1.6091 B( 21-C , 36-H ) :   0.9833
B( 22-C , 23-S ) :   1.1000 B( 22-C , 37-H ) :   0.9625

Dispersion correction           -0.111626241
FINAL SINGLE POINT ENERGY     -2362.445515699389

DIPOLE MOMENT
-------------
                                X             Y             Z
Electronic contribution:      0.11293       0.01525      -2.87425
Nuclear contribution   :     -0.12029      -0.01739       3.01675
                        -----------------------------------------
Total Dipole Moment    :     -0.00736      -0.00214       0.14250
                        -----------------------------------------
Magnitude (a.u.)       :      0.14271
Magnitude (Debye)      :      0.36274

Rotational constants in cm-1:     0.013343     0.003541     0.002904
Rotational constants in MHz :   400.024210   106.149468    87.074269

                             ****ORCA TERMINATED NORMALLY****
TOTAL RUN TIME: 0 days 0 hours 50 minutes 9 seconds 567 msec
