                         Program Version 4.2.0 -  RELEASE  -
|  1> # ORCA input file
|  2> # SCF done        -22.262346628214          0.000592623160
|  3> ! B3LYP/G D3BJ Opt RIJCOSX def2-SVP def2/J
|  4> * xyz 0 1
|  5>    C       -1.26135         0.11145        -0.00294
|  6>    C       -0.37531         1.14144        -0.00007
|  7>    F       -0.73158         2.42972         0.00233
|  8>    C        0.97543         0.70270         0.00010
|  9>    F        2.02075         1.53569         0.00268
| 10>    C        1.08709        -0.65136        -0.00264
| 11>    S       -0.45463        -1.40137        -0.00544
| 12>    H       -2.33057         0.16756        -0.00368
| 13>    H        1.98521        -1.23426        -0.00314
| 14> *
| 15>
| 16>                          ****END OF INPUT****
 Total Charge           Charge          ....    0
 Multiplicity           Mult            ....    1
 Number of Electrons    NEL             ....   60
Dispersion correction           -0.015939449
FINAL SINGLE POINT ENERGY      -751.103294499921
Dispersion correction            ... done
Dispersion correction           -0.015939721
FINAL SINGLE POINT ENERGY      -751.104361383095
Dispersion correction            ... done
Dispersion correction           -0.015944768
FINAL SINGLE POINT ENERGY      -751.104492719449
Dispersion correction            ... done
Dispersion correction           -0.015947023
FINAL SINGLE POINT ENERGY      -751.104531825856
Dispersion correction            ... done
Dispersion correction           -0.015947045
FINAL SINGLE POINT ENERGY      -751.104540937148
Dispersion correction            ... done
                    ***********************HURRAY********************

CARTESIAN COORDINATES (ANGSTROEM)
---------------------------------
  C     -1.276348    0.110970   -0.003070
  C     -0.380708    1.143854    0.000332
  F     -0.707221    2.433986    0.002296
  C      0.980932    0.701162    0.000552
  F      2.004136    1.551192    0.002823
  C      1.098631   -0.660760   -0.002859
  S     -0.461321   -1.416392   -0.003988
  H     -2.361782    0.178339   -0.004677
  H      2.018721   -1.240780   -0.004208

 Multiplicity           Mult            ....    1
 Number of Electrons    NEL             ....   60
 Basis Dimension        Dim             ....  112

ORBITAL ENERGIES
----------------

  NO   OCC          E(Eh)            E(eV)
   0   2.0000     -88.894669     -2418.9469
   1   2.0000     -24.713697      -672.4939
   2   2.0000     -24.713582      -672.4907
   3   2.0000     -10.287266      -279.9307
   4   2.0000     -10.287030      -279.9243
   5   2.0000     -10.228172      -278.3227
   6   2.0000     -10.227935      -278.3163
   7   2.0000      -7.989325      -217.4006
   8   2.0000      -5.957637      -162.1155
   9   2.0000      -5.953737      -162.0094
  10   2.0000      -5.950071      -161.9097
  11   2.0000      -1.229641       -33.4602
  12   2.0000      -1.218900       -33.1679
  13   2.0000      -0.900922       -24.5153
  14   2.0000      -0.747718       -20.3465
  15   2.0000      -0.741287       -20.1714
  16   2.0000      -0.615206       -16.7406
  17   2.0000      -0.594555       -16.1787
  18   2.0000      -0.572588       -15.5809
  19   2.0000      -0.502909       -13.6848
  20   2.0000      -0.500268       -13.6130
  21   2.0000      -0.498235       -13.5577
  22   2.0000      -0.466104       -12.6833
  23   2.0000      -0.441195       -12.0055
  24   2.0000      -0.415307       -11.3011
  25   2.0000      -0.399962       -10.8835
  26   2.0000      -0.380414       -10.3516
  27   2.0000      -0.360219        -9.8021
  28   2.0000      -0.256563        -6.9814
  29   2.0000      -0.255530        -6.9533
  30   0.0000      -0.030985        -0.8432
  31   0.0000       0.027552         0.7497
  32   0.0000       0.056604         1.5403
  33   0.0000       0.061563         1.6752
  34   0.0000       0.074017         2.0141

MULLIKEN ATOMIC CHARGES
-----------------------
   0 C :   -0.170117
   1 C :    0.239354
   2 F :   -0.176413
   3 C :    0.237242
   4 F :   -0.176598
   5 C :   -0.163020
   6 S :    0.117600
   7 H :    0.047727
   8 H :    0.044225
Sum of atomic charges:   -0.0000000

LOEWDIN ATOMIC CHARGES
----------------------
   0 C :   -0.224278
   1 C :    0.014179
   2 F :   -0.048505
   3 C :    0.014319
   4 F :   -0.048064
   5 C :   -0.222934
   6 S :    0.444942
   7 H :    0.035359
   8 H :    0.034981

  Mayer bond orders larger than 0.100000
B(  0-C ,  1-C ) :   1.5278 B(  0-C ,  5-C ) :   0.1082 B(  0-C ,  6-S ) :   1.1475
B(  0-C ,  7-H ) :   0.9646 B(  1-C ,  2-F ) :   1.1264 B(  1-C ,  3-C ) :   1.1880
B(  3-C ,  4-F ) :   1.1260 B(  3-C ,  5-C ) :   1.5287 B(  5-C ,  6-S ) :   1.1465
B(  5-C ,  8-H ) :   0.9652

Dispersion correction           -0.015946681
FINAL SINGLE POINT ENERGY      -751.104542160095

DIPOLE MOMENT
-------------
                                X             Y             Z
Electronic contribution:      1.29258       3.97454       0.01121
Nuclear contribution   :     -1.50945      -4.64604      -0.01297
                        -----------------------------------------
Total Dipole Moment    :     -0.21687      -0.67151      -0.00175
                        -----------------------------------------
Magnitude (a.u.)       :      0.70566
Magnitude (Debye)      :      1.79364

Rotational constants in cm-1:     0.122438     0.068877     0.044080
Rotational constants in MHz :  3670.605624  2064.881187  1321.486035

                             ****ORCA TERMINATED NORMALLY****
TOTAL RUN TIME: 0 days 0 hours 1 minutes 40 seconds 682 msec
