                         Program Version 4.2.0 -  RELEASE  -
|  1> # ORCA input file
|  2> # SCF done        -43.042088174878          0.000554376270
|  3> ! B3LYP/G D3BJ Opt RIJCOSX def2-SVP def2/J
|  4> * xyz 0 1
|  5>    C       -0.61426         1.22203         0.00143
|  6>    F       -1.28970         2.36081         0.00225
|  7>    C        0.78707         1.20704         0.00124
|  8>    C        1.52269         2.54101         0.00211
|  9>    O        0.93079         3.57788         0.00296
| 10>    O        2.85123         2.51327         0.00147
| 11>    C        1.40021        -0.04824         0.00031
| 12>    F        2.74358        -0.15751         0.00004
| 13>    C        0.66276        -1.22648        -0.00035
| 14>    F        1.29985        -2.39889        -0.00122
| 15>    C       -0.71954        -1.19706        -0.00012
| 16>    C       -1.34639         0.03410         0.00077
| 17>    F       -2.67849         0.08755         0.00099
| 18>    H        3.26340         1.63866         0.00073
| 19>    H       -1.29143        -2.11078        -0.00063
| 20> *
| 21>
| 22>                          ****END OF INPUT****
 Total Charge           Charge          ....    0
 Multiplicity           Mult            ....    1
 Number of Electrons    NEL             ....   96
Dispersion correction           -0.028322456
FINAL SINGLE POINT ENERGY      -817.148818343908
Dispersion correction            ... done
Dispersion correction           -0.028321132
FINAL SINGLE POINT ENERGY      -817.149669502962
Dispersion correction            ... done
Dispersion correction           -0.028274564
FINAL SINGLE POINT ENERGY      -817.150303189108
Dispersion correction            ... done
FINAL SINGLE POINT ENERGY      -817.150365205576
FINAL SINGLE POINT ENERGY      -817.150365125603
Dispersion correction            ... done
Dispersion correction           -0.028308413
FINAL SINGLE POINT ENERGY      -817.150356517242
Dispersion correction            ... done
Dispersion correction           -0.028306610
FINAL SINGLE POINT ENERGY      -817.150365866163
Dispersion correction            ... done
                    ***********************HURRAY********************

CARTESIAN COORDINATES (ANGSTROEM)
---------------------------------
  C     -0.633759    1.235108    0.000932
  F     -1.333430    2.355321    0.000762
  C      0.776480    1.227561    0.001743
  C      1.535555    2.543945    0.003533
  O      0.971115    3.601048    0.009216
  O      2.875669    2.482003   -0.001503
  C      1.397051   -0.032489    0.001395
  F      2.742927   -0.134434    0.001925
  C      0.679022   -1.225146    0.000611
  F      1.344928   -2.377932    0.000565
  C     -0.710866   -1.199121   -0.000061
  C     -1.353030    0.033096   -0.000129
  F     -2.681718    0.089479   -0.001134
  H      3.200324    1.568883   -0.005238
  H     -1.288497   -2.123932   -0.000636

 Multiplicity           Mult            ....    1
 Number of Electrons    NEL             ....   96
 Basis Dimension        Dim             ....  192

ORBITAL ENERGIES
----------------

  NO   OCC          E(Eh)            E(eV)
   0   2.0000     -24.764807      -673.8847
   1   2.0000     -24.741949      -673.2627
   2   2.0000     -24.736834      -673.1235
   3   2.0000     -24.733268      -673.0264
   4   2.0000     -19.187400      -522.1157
   5   2.0000     -19.130739      -520.5739
   6   2.0000     -10.342129      -281.4236
   7   2.0000     -10.328905      -281.0638
   8   2.0000     -10.324040      -280.9314
   9   2.0000     -10.323626      -280.9202
  10   2.0000     -10.319772      -280.8153
  11   2.0000     -10.260573      -279.2044
  12   2.0000     -10.251057      -278.9454
  13   2.0000      -1.275813       -34.7166
  14   2.0000      -1.258079       -34.2341
  15   2.0000      -1.251587       -34.0574
  16   2.0000      -1.241513       -33.7833
  17   2.0000      -1.105652       -30.0863
  18   2.0000      -1.023593       -27.8534
  19   2.0000      -0.915624       -24.9154
  20   2.0000      -0.814995       -22.1771
  21   2.0000      -0.789980       -21.4964
  22   2.0000      -0.708261       -19.2728
  23   2.0000      -0.672976       -18.3126
  24   2.0000      -0.644802       -17.5460
  25   2.0000      -0.616428       -16.7739
  26   2.0000      -0.605512       -16.4768
  27   2.0000      -0.602576       -16.3969
  28   2.0000      -0.567465       -15.4415
  29   2.0000      -0.555825       -15.1248
  30   2.0000      -0.544118       -14.8062
  31   2.0000      -0.533823       -14.5261
  32   2.0000      -0.521207       -14.1828
  33   2.0000      -0.504514       -13.7285
  34   2.0000      -0.501670       -13.6511
  35   2.0000      -0.487471       -13.2648
  36   2.0000      -0.468748       -12.7553
  37   2.0000      -0.462655       -12.5895
  38   2.0000      -0.458865       -12.4864
  39   2.0000      -0.439739       -11.9659
  40   2.0000      -0.428230       -11.6527
  41   2.0000      -0.409525       -11.1437
  42   2.0000      -0.390206       -10.6181
  43   2.0000      -0.384748       -10.4695
  44   2.0000      -0.333127        -9.0649
  45   2.0000      -0.306098        -8.3293
  46   2.0000      -0.292984        -7.9725
  47   2.0000      -0.278152        -7.5689
  48   0.0000      -0.086241        -2.3467
  49   0.0000      -0.040994        -1.1155
  50   0.0000       0.011371         0.3094
  51   0.0000       0.027085         0.7370
  52   0.0000       0.066422         1.8074

MULLIKEN ATOMIC CHARGES
-----------------------
   0 C :    0.190952
   1 F :   -0.132062
   2 C :   -0.178966
   3 C :    0.187144
   4 O :   -0.152510
   5 O :   -0.151432
   6 C :    0.194092
   7 F :   -0.197571
   8 C :    0.268136
   9 F :   -0.166657
  10 C :   -0.143012
  11 C :    0.248222
  12 F :   -0.166039
  13 H :    0.174551
  14 H :    0.025153
Sum of atomic charges:    0.0000000

LOEWDIN ATOMIC CHARGES
----------------------
   0 C :    0.076064
   1 F :   -0.008322
   2 C :   -0.119922
   3 C :    0.080763
   4 O :   -0.136515
   5 O :   -0.024412
   6 C :    0.056910
   7 F :   -0.038458
   8 C :    0.054775
   9 F :   -0.038523
  10 C :   -0.046504
  11 C :    0.057494
  12 F :   -0.036305
  13 H :    0.065008
  14 H :    0.057949

  Mayer bond orders larger than 0.100000
B(  0-C ,  1-F ) :   1.1975 B(  0-C ,  2-C ) :   1.3167 B(  0-C , 11-C ) :   1.2861
B(  2-C ,  3-C ) :   0.8507 B(  2-C ,  6-C ) :   1.2912 B(  2-C , 10-C ) :   0.1103
B(  3-C ,  4-O ) :   2.1913 B(  3-C ,  5-O ) :   1.2734 B(  5-O , 13-H ) :   0.9273
B(  6-C ,  7-F ) :   1.0432 B(  6-C ,  8-C ) :   1.3257 B(  8-C ,  9-F ) :   1.1279
B(  8-C , 10-C ) :   1.3113 B( 10-C , 11-C ) :   1.3197 B( 10-C , 14-H ) :   1.0122
B( 11-C , 12-F ) :   1.1188

Dispersion correction           -0.028306362
FINAL SINGLE POINT ENERGY      -817.150365960628

DIPOLE MOMENT
-------------
                                X             Y             Z
Electronic contribution:     -2.59282      -2.54243      -0.00088
Nuclear contribution   :      2.57303       0.80521      -0.00500
                        -----------------------------------------
Total Dipole Moment    :     -0.01979      -1.73723      -0.00588
                        -----------------------------------------
Magnitude (a.u.)       :      1.73735
Magnitude (Debye)      :      4.41600

Rotational constants in cm-1:     0.031246     0.027144     0.014526
Rotational constants in MHz :   936.739281   813.765628   435.467276

                             ****ORCA TERMINATED NORMALLY****
TOTAL RUN TIME: 0 days 0 hours 6 minutes 59 seconds 45 msec
