                         Program Version 4.2.0 -  RELEASE  -
|  1> # ORCA input file
|  2> # SCF done        -26.011583790340          0.000308374708
|  3> ! B3LYP/G D3BJ Opt RIJCOSX def2-SVP def2/J
|  4> * xyz 0 1
|  5>    C       -1.20373         1.37346        -0.03677
|  6>    C       -2.36444         0.65161        -0.04317
|  7>    C       -2.33956        -0.75441        -0.02448
|  8>    C       -1.15405        -1.43432         0.00052
|  9>    C        0.06065        -0.72014         0.00775
| 10>    N        1.23454        -1.38722         0.03228
| 11>    C        2.32694        -0.67340         0.03777
| 12>    C        2.30198         0.73741         0.01913
| 13>    N        1.18501         1.41175        -0.00478
| 14>    C        0.03547         0.70313        -0.01113
| 15>    H       -1.19948         2.45227        -0.05075
| 16>    H       -3.31781         1.15900        -0.06257
| 17>    H       -3.27438        -1.29553        -0.02995
| 18>    H       -1.11163        -2.51229         0.01517
| 19>    H        3.26250        -1.21678         0.05792
| 20>    H        3.21772         1.31389         0.02451
| 21> *
| 22>
| 23>                          ****END OF INPUT****
 Total Charge           Charge          ....    0
 Multiplicity           Mult            ....    1
 Number of Electrons    NEL             ....   68
Dispersion correction           -0.032392089
FINAL SINGLE POINT ENERGY      -417.692553439069
Dispersion correction            ... done
Dispersion correction           -0.032254427
FINAL SINGLE POINT ENERGY      -417.694625775328
Dispersion correction            ... done
Dispersion correction           -0.032240240
FINAL SINGLE POINT ENERGY      -417.694695480215
Dispersion correction            ... done
Dispersion correction           -0.032237750
FINAL SINGLE POINT ENERGY      -417.694719887449
Dispersion correction            ... done
Dispersion correction           -0.032240517
FINAL SINGLE POINT ENERGY      -417.694722642223
Dispersion correction            ... done
                    ***********************HURRAY********************

CARTESIAN COORDINATES (ANGSTROEM)
---------------------------------
  C     -1.212970    1.381168   -0.036261
  C     -2.386556    0.658084   -0.042211
  C     -2.361569   -0.761955   -0.024870
  C     -1.163002   -1.442219   -0.000538
  C      0.061895   -0.724621    0.008016
  N      1.242307   -1.400509    0.034561
  C      2.339266   -0.679911    0.039111
  C      2.314526    0.744210    0.018198
  N      1.193250    1.425791   -0.006287
  C      0.036822    0.708414   -0.011506
  H     -1.199404    2.472895   -0.050712
  H     -3.347240    1.177926   -0.061702
  H     -3.303162   -1.315733   -0.031429
  H     -1.109159   -2.532765    0.013578
  H      3.299235   -1.209574    0.060679
  H      3.255490    1.307230    0.022824

 Multiplicity           Mult            ....    1
 Number of Electrons    NEL             ....   68
 Basis Dimension        Dim             ....  170

ORBITAL ENERGIES
----------------

  NO   OCC          E(Eh)            E(eV)
   0   2.0000     -14.342127      -390.2691
   1   2.0000     -14.341987      -390.2653
   2   2.0000     -10.237855      -278.5862
   3   2.0000     -10.237618      -278.5797
   4   2.0000     -10.235266      -278.5158
   5   2.0000     -10.235000      -278.5085
   6   2.0000     -10.208148      -277.7778
   7   2.0000     -10.207885      -277.7707
   8   2.0000     -10.202653      -277.6283
   9   2.0000     -10.202570      -277.6260
  10   2.0000      -0.979408       -26.6510
  11   2.0000      -0.907791       -24.7023
  12   2.0000      -0.852245       -23.1908
  13   2.0000      -0.761255       -20.7148
  14   2.0000      -0.752922       -20.4881
  15   2.0000      -0.668566       -18.1926
  16   2.0000      -0.650139       -17.6912
  17   2.0000      -0.609181       -16.5766
  18   2.0000      -0.545846       -14.8532
  19   2.0000      -0.541299       -14.7295
  20   2.0000      -0.512375       -13.9424
  21   2.0000      -0.474919       -12.9232
  22   2.0000      -0.447261       -12.1706
  23   2.0000      -0.442750       -12.0478
  24   2.0000      -0.441236       -12.0066
  25   2.0000      -0.433506       -11.7963
  26   2.0000      -0.374514       -10.1911
  27   2.0000      -0.373917       -10.1748
  28   2.0000      -0.359690        -9.7877
  29   2.0000      -0.349359        -9.5065
  30   2.0000      -0.310568        -8.4510
  31   2.0000      -0.268913        -7.3175
  32   2.0000      -0.254475        -6.9246
  33   2.0000      -0.250747        -6.8232
  34   0.0000      -0.078397        -2.1333
  35   0.0000      -0.035043        -0.9536
  36   0.0000      -0.000735        -0.0200
  37   0.0000       0.061152         1.6640
  38   0.0000       0.068480         1.8634

MULLIKEN ATOMIC CHARGES
-----------------------
   0 C :    0.000336
   1 C :    0.037925
   2 C :    0.038664
   3 C :    0.000783
   4 C :    0.003501
   5 N :   -0.051869
   6 C :    0.031582
   7 C :    0.031695
   8 N :   -0.051034
   9 C :    0.004337
  10 H :   -0.020201
  11 H :   -0.008469
  12 H :   -0.007941
  13 H :   -0.019845
  14 H :    0.005079
  15 H :    0.005458
Sum of atomic charges:   -0.0000000

LOEWDIN ATOMIC CHARGES
----------------------
   0 C :   -0.014648
   1 C :   -0.015671
   2 C :   -0.015689
   3 C :   -0.014736
   4 C :   -0.009550
   5 N :   -0.050315
   6 C :    0.000945
   7 C :    0.000943
   8 N :   -0.050354
   9 C :   -0.009520
  10 H :    0.034803
  11 H :    0.030938
  12 H :    0.031050
  13 H :    0.034885
  14 H :    0.023428
  15 H :    0.023491

  Mayer bond orders larger than 0.100000
B(  0-C ,  1-C ) :   1.4461 B(  0-C ,  3-C ) :   0.1094 B(  0-C ,  9-C ) :   1.2536
B(  0-C , 10-H ) :   0.9975 B(  1-C ,  2-C ) :   1.2420 B(  1-C , 11-H ) :   0.9878
B(  2-C ,  3-C ) :   1.4455 B(  2-C , 12-H ) :   0.9877 B(  3-C ,  4-C ) :   1.2537
B(  3-C , 13-H ) :   0.9972 B(  4-C ,  5-N ) :   1.4112 B(  4-C ,  9-C ) :   1.2187
B(  5-N ,  6-C ) :   1.6521 B(  6-C ,  7-C ) :   1.2283 B(  6-C , 14-H ) :   0.9656
B(  7-C ,  8-N ) :   1.6520 B(  7-C , 15-H ) :   0.9654 B(  8-N ,  9-C ) :   1.4114

Dispersion correction           -0.032242283
FINAL SINGLE POINT ENERGY      -417.694722115429

DIPOLE MOMENT
-------------
                                X             Y             Z
Electronic contribution:      2.15703       0.03947       0.02927
Nuclear contribution   :     -2.38113      -0.04387      -0.03278
                        -----------------------------------------
Total Dipole Moment    :     -0.22411      -0.00439      -0.00351
                        -----------------------------------------
Magnitude (a.u.)       :      0.22418
Magnitude (Debye)      :      0.56981

Rotational constants in cm-1:     0.105708     0.043480     0.030808
Rotational constants in MHz :  3169.058398  1303.505124   923.605917

                             ****ORCA TERMINATED NORMALLY****
TOTAL RUN TIME: 0 days 0 hours 4 minutes 16 seconds 848 msec
