                         Program Version 4.2.0 -  RELEASE  -
|  1> # ORCA input file
|  2> # SCF done        -30.441581100823          0.000943004630
|  3> ! B3LYP/G D3BJ Opt RIJCOSX def2-SVP def2/J
|  4> * xyz 0 1
|  5>    C        1.31953         1.10153        -0.49794
|  6>    C        0.07316         0.63996        -0.21649
|  7>    O       -1.07443         1.37475        -0.30850
|  8>    C       -2.14648         0.76347         0.38125
|  9>    C       -2.24349        -0.73642         0.06625
| 10>    C       -2.48041        -0.97789        -1.42359
| 11>    O       -1.06911        -1.40153         0.51687
| 12>    C        0.07252        -0.72886         0.19393
| 13>    C        1.32172        -1.26396         0.22389
| 14>    S        2.51037        -0.11655        -0.25716
| 15>    H        1.59895         2.07772        -0.83418
| 16>    H       -3.04942         1.28527         0.06178
| 17>    H       -2.01320         0.89316         1.46499
| 18>    H       -3.05465        -1.17774         0.65442
| 19>    H       -1.71928        -0.47520        -2.01652
| 20>    H       -3.45721        -0.59619        -1.70851
| 21>    H       -2.43826        -2.04351        -1.63189
| 22>    H        1.60485        -2.25715         0.50212
| 23> *
| 24>
| 25>                          ****END OF INPUT****
 Total Charge           Charge          ....    0
 Multiplicity           Mult            ....    1
 Number of Electrons    NEL             ....   82
Dispersion correction           -0.034594715
FINAL SINGLE POINT ENERGY      -819.777514024253
Dispersion correction            ... done
Dispersion correction           -0.034432393
FINAL SINGLE POINT ENERGY      -819.779438027147
Dispersion correction            ... done
Dispersion correction           -0.034385221
FINAL SINGLE POINT ENERGY      -819.779598612242
Dispersion correction            ... done
FINAL SINGLE POINT ENERGY      -819.779570975510
FINAL SINGLE POINT ENERGY      -819.779624084914
FINAL SINGLE POINT ENERGY      -819.779624628853
Dispersion correction            ... done
Dispersion correction           -0.034338832
FINAL SINGLE POINT ENERGY      -819.779613471599
Dispersion correction            ... done
Dispersion correction           -0.034334356
FINAL SINGLE POINT ENERGY      -819.779608042712
Dispersion correction            ... done
                    ***********************HURRAY********************

CARTESIAN COORDINATES (ANGSTROEM)
---------------------------------
  C      1.362189    1.144905   -0.439620
  C      0.101433    0.655131   -0.216961
  O     -1.055201    1.362078   -0.348953
  C     -2.135286    0.763658    0.359088
  C     -2.248463   -0.728838    0.044595
  C     -2.548850   -1.010090   -1.421573
  O     -1.048306   -1.404146    0.454449
  C      0.098263   -0.733128    0.166312
  C      1.359483   -1.268653    0.222044
  S      2.559465   -0.084629   -0.188438
  H      1.634413    2.151657   -0.747241
  H     -3.046076    1.292213    0.045834
  H     -1.994808    0.905684    1.446871
  H     -3.039031   -1.156657    0.680589
  H     -1.786085   -0.559054   -2.072368
  H     -3.527225   -0.588709   -1.700853
  H     -2.566270   -2.094573   -1.601014
  H      1.635513   -2.285988    0.487961

 Multiplicity           Mult            ....    1
 Number of Electrons    NEL             ....   82
 Basis Dimension        Dim             ....  184

ORBITAL ENERGIES
----------------

  NO   OCC          E(Eh)            E(eV)
   0   2.0000     -88.867673     -2418.2123
   1   2.0000     -19.168351      -521.5974
   2   2.0000     -19.164904      -521.5036
   3   2.0000     -10.258293      -279.1423
   4   2.0000     -10.254064      -279.0273
   5   2.0000     -10.244640      -278.7708
   6   2.0000     -10.244032      -278.7543
   7   2.0000     -10.202230      -277.6168
   8   2.0000     -10.200431      -277.5678
   9   2.0000     -10.192044      -277.3396
  10   2.0000      -7.962344      -216.6664
  11   2.0000      -5.930647      -161.3811
  12   2.0000      -5.926775      -161.2758
  13   2.0000      -5.923149      -161.1771
  14   2.0000      -1.081358       -29.4252
  15   2.0000      -1.044990       -28.4356
  16   2.0000      -0.872217       -23.7342
  17   2.0000      -0.791231       -21.5305
  18   2.0000      -0.733051       -19.9473
  19   2.0000      -0.711376       -19.3575
  20   2.0000      -0.684964       -18.6388
  21   2.0000      -0.629097       -17.1186
  22   2.0000      -0.586258       -15.9529
  23   2.0000      -0.548537       -14.9264
  24   2.0000      -0.520281       -14.1576
  25   2.0000      -0.504009       -13.7148
  26   2.0000      -0.489901       -13.3309
  27   2.0000      -0.452017       -12.3000
  28   2.0000      -0.444703       -12.1010
  29   2.0000      -0.429162       -11.6781
  30   2.0000      -0.407887       -11.0992
  31   2.0000      -0.402402       -10.9499
  32   2.0000      -0.394667       -10.7394
  33   2.0000      -0.390964       -10.6387
  34   2.0000      -0.379566       -10.3285
  35   2.0000      -0.349985        -9.5236
  36   2.0000      -0.336089        -9.1454
  37   2.0000      -0.324706        -8.8357
  38   2.0000      -0.304135        -8.2759
  39   2.0000      -0.220300        -5.9947
  40   2.0000      -0.215114        -5.8535
  41   0.0000      -0.007196        -0.1958
  42   0.0000       0.047285         1.2867
  43   0.0000       0.050211         1.3663
  44   0.0000       0.076307         2.0764
  45   0.0000       0.086894         2.3645

MULLIKEN ATOMIC CHARGES
-----------------------
   0 C :   -0.163970
   1 C :    0.177782
   2 O :   -0.318812
   3 C :    0.247417
   4 C :    0.056542
   5 C :    0.061776
   6 O :   -0.310723
   7 C :    0.188397
   8 C :   -0.164948
   9 S :    0.087792
  10 H :    0.016091
  11 H :    0.012722
  12 H :    0.021324
  13 H :    0.007945
  14 H :    0.029924
  15 H :    0.007429
  16 H :    0.027817
  17 H :    0.015495
Sum of atomic charges:   -0.0000000

LOEWDIN ATOMIC CHARGES
----------------------
   0 C :   -0.227633
   1 C :   -0.025001
   2 O :   -0.109923
   3 C :    0.083098
   4 C :    0.057439
   5 C :   -0.057282
   6 O :   -0.108375
   7 C :   -0.020344
   8 C :   -0.231191
   9 S :    0.418423
  10 H :    0.026978
  11 H :    0.027747
  12 H :    0.018671
  13 H :    0.027943
  14 H :    0.032531
  15 H :    0.028529
  16 H :    0.032024
  17 H :    0.026370

  Mayer bond orders larger than 0.100000
B(  0-C ,  1-C ) :   1.5355 B(  0-C ,  9-S ) :   1.1379 B(  0-C , 10-H ) :   0.9667
B(  1-C ,  2-O ) :   1.0943 B(  1-C ,  7-C ) :   1.1750 B(  2-O ,  3-C ) :   0.9619
B(  3-C ,  4-C ) :   1.0440 B(  3-C , 11-H ) :   0.9462 B(  3-C , 12-H ) :   0.9377
B(  4-C ,  5-C ) :   1.0698 B(  4-C ,  6-O ) :   0.9400 B(  4-C , 13-H ) :   0.9238
B(  5-C , 14-H ) :   0.9571 B(  5-C , 15-H ) :   0.9571 B(  5-C , 16-H ) :   0.9591
B(  6-O ,  7-C ) :   1.1075 B(  7-C ,  8-C ) :   1.5345 B(  8-C ,  9-S ) :   1.1333
B(  8-C , 17-H ) :   0.9654

Dispersion correction           -0.034332570
FINAL SINGLE POINT ENERGY      -819.779606018245

DIPOLE MOMENT
-------------
                                X             Y             Z
Electronic contribution:     10.57777       1.23736       2.13946
Nuclear contribution   :    -11.40633      -1.23402      -2.12015
                        -----------------------------------------
Total Dipole Moment    :     -0.82856       0.00334       0.01931
                        -----------------------------------------
Magnitude (a.u.)       :      0.82879
Magnitude (Debye)      :      2.10662

Rotational constants in cm-1:     0.087186     0.029079     0.024610
Rotational constants in MHz :  2613.773437   871.777791   737.799909

                             ****ORCA TERMINATED NORMALLY****
TOTAL RUN TIME: 0 days 0 hours 8 minutes 10 seconds 112 msec
