                         Program Version 4.2.0 -  RELEASE  -
|  1> # ORCA input file
|  2> # SCF done        -32.773499930982          0.000443785464
|  3> ! B3LYP/G D3BJ Opt RIJCOSX def2-SVP def2/J
|  4> * xyz 0 1
|  5>    C       -0.76579         1.16684        -0.00513
|  6>    C        0.61624         1.23413        -0.00241
|  7>    F        1.21359         2.42996        -0.00172
|  8>    C        1.37738         0.06891        -0.00041
|  9>    F        2.71246         0.13539         0.00221
| 10>    C        0.76043        -1.16960        -0.00113
| 11>    C       -0.62160        -1.23688        -0.00384
| 12>    C       -1.38275        -0.07167        -0.00584
| 13>    F       -2.71782        -0.13815        -0.00846
| 14>    F       -1.21895        -2.43271        -0.00453
| 15>    H       -1.35515         2.06906        -0.00667
| 16>    H        1.34978        -2.07182         0.00042
| 17> *
| 18>
| 19>                          ****END OF INPUT****
 Total Charge           Charge          ....    0
 Multiplicity           Mult            ....    1
 Number of Electrons    NEL             ....   74
Dispersion correction           -0.020345659
FINAL SINGLE POINT ENERGY      -628.722484758227
Dispersion correction            ... done
Dispersion correction           -0.020307216
FINAL SINGLE POINT ENERGY      -628.723240921818
Dispersion correction            ... done
Dispersion correction           -0.020301072
FINAL SINGLE POINT ENERGY      -628.723279722760
Dispersion correction            ... done
Dispersion correction           -0.020302859
FINAL SINGLE POINT ENERGY      -628.723263271080
Dispersion correction            ... done
Dispersion correction           -0.020304268
FINAL SINGLE POINT ENERGY      -628.723255163317
Dispersion correction            ... done
                    ***********************HURRAY********************

CARTESIAN COORDINATES (ANGSTROEM)
---------------------------------
  C     -0.769936    1.173020   -0.005147
  C      0.620727    1.241355   -0.002373
  F      1.245166    2.418948   -0.001454
  C      1.383962    0.070545   -0.000456
  F      2.714045    0.161925    0.002020
  C      0.764573   -1.175777   -0.001108
  C     -0.626090   -1.244110   -0.003870
  C     -1.389328   -0.073303   -0.005805
  F     -2.719411   -0.164684   -0.008298
  F     -1.250527   -2.421702   -0.004761
  H     -1.371972    2.081988   -0.006924
  H      1.366611   -2.084745    0.000666

 Multiplicity           Mult            ....    1
 Number of Electrons    NEL             ....   74
 Basis Dimension        Dim             ....  150

ORBITAL ENERGIES
----------------

  NO   OCC          E(Eh)            E(eV)
   0   2.0000     -24.721848      -672.7157
   1   2.0000     -24.721833      -672.7153
   2   2.0000     -24.721591      -672.7087
   3   2.0000     -24.721547      -672.7075
   4   2.0000     -10.301530      -280.3189
   5   2.0000     -10.301455      -280.3168
   6   2.0000     -10.301035      -280.3054
   7   2.0000     -10.300977      -280.3038
   8   2.0000     -10.230074      -278.3745
   9   2.0000     -10.230004      -278.3726
  10   2.0000      -1.241262       -33.7765
  11   2.0000      -1.240604       -33.7586
  12   2.0000      -1.226378       -33.3714
  13   2.0000      -1.226035       -33.3621
  14   2.0000      -0.893511       -24.3137
  15   2.0000      -0.785589       -21.3770
  16   2.0000      -0.768661       -20.9163
  17   2.0000      -0.673673       -18.3316
  18   2.0000      -0.649386       -17.6707
  19   2.0000      -0.593113       -16.1394
  20   2.0000      -0.580333       -15.7917
  21   2.0000      -0.576206       -15.6794
  22   2.0000      -0.547789       -14.9061
  23   2.0000      -0.517502       -14.0820
  24   2.0000      -0.509993       -13.8776
  25   2.0000      -0.499644       -13.5960
  26   2.0000      -0.483287       -13.1509
  27   2.0000      -0.478119       -13.0103
  28   2.0000      -0.476146       -12.9566
  29   2.0000      -0.470723       -12.8090
  30   2.0000      -0.443433       -12.0664
  31   2.0000      -0.419222       -11.4076
  32   2.0000      -0.392603       -10.6833
  33   2.0000      -0.391795       -10.6613
  34   2.0000      -0.365121        -9.9354
  35   2.0000      -0.286785        -7.8038
  36   2.0000      -0.257980        -7.0200
  37   0.0000      -0.041702        -1.1348
  38   0.0000      -0.019821        -0.5393
  39   0.0000       0.034771         0.9462
  40   0.0000       0.089249         2.4286
  41   0.0000       0.092558         2.5186

MULLIKEN ATOMIC CHARGES
-----------------------
   0 C :   -0.141895
   1 C :    0.241092
   2 F :   -0.174980
   3 C :    0.235690
   4 F :   -0.176229
   5 C :   -0.141869
   6 C :    0.241091
   7 C :    0.235704
   8 F :   -0.176227
   9 F :   -0.174988
  10 H :    0.016304
  11 H :    0.016309
Sum of atomic charges:   -0.0000000

LOEWDIN ATOMIC CHARGES
----------------------
   0 C :   -0.062074
   1 C :    0.050761
   2 F :   -0.045739
   3 C :    0.050742
   4 F :   -0.046415
   5 C :   -0.062074
   6 C :    0.050760
   7 C :    0.050743
   8 F :   -0.046415
   9 F :   -0.045737
  10 H :    0.052724
  11 H :    0.052724

  Mayer bond orders larger than 0.100000
B(  0-C ,  1-C ) :   1.3113 B(  0-C ,  5-C ) :   0.1260 B(  0-C ,  7-C ) :   1.3139
B(  0-C , 10-H ) :   1.0056 B(  1-C ,  2-F ) :   1.1181 B(  1-C ,  3-C ) :   1.2977
B(  3-C ,  4-F ) :   1.1156 B(  3-C ,  5-C ) :   1.3139 B(  5-C ,  6-C ) :   1.3113
B(  5-C , 11-H ) :   1.0056 B(  6-C ,  7-C ) :   1.2977 B(  6-C ,  9-F ) :   1.1181
B(  7-C ,  8-F ) :   1.1156

Dispersion correction           -0.020304515
FINAL SINGLE POINT ENERGY      -628.723253234119

DIPOLE MOMENT
-------------
                                X             Y             Z
Electronic contribution:     -0.00000      -0.00000       0.00001
Nuclear contribution   :      0.00000      -0.00000      -0.00001
                        -----------------------------------------
Total Dipole Moment    :     -0.00000      -0.00000      -0.00000
                        -----------------------------------------
Magnitude (a.u.)       :      0.00000
Magnitude (Debye)      :      0.00001

Rotational constants in cm-1:     0.076267     0.034076     0.023553
Rotational constants in MHz :  2286.440112  1021.566369   706.090010

                             ****ORCA TERMINATED NORMALLY****
TOTAL RUN TIME: 0 days 0 hours 2 minutes 53 seconds 124 msec
