                         Program Version 4.2.0 -  RELEASE  -
|  1> # ORCA input file
|  2> # SCF done        -23.898119568090          0.000525124675
|  3> ! B3LYP/G D3BJ Opt RIJCOSX def2-SVP def2/J
|  4> * xyz 0 1
|  5>    C        0.91396        -1.40687         0.00005
|  6>    C       -0.27942        -0.69324         0.00008
|  7>    C       -0.25930         0.72236         0.00034
|  8>    C        0.92600         1.43944         0.00056
|  9>    C        2.09778         0.70974         0.00052
| 10>    C        2.09008        -0.68704         0.00027
| 11>    N       -1.57945         1.09659         0.00030
| 12>    C       -2.30596        -0.05908         0.00004
| 13>    N       -1.58191        -1.13049        -0.00009
| 14>    H        0.90583        -2.48483        -0.00014
| 15>    H        0.93261         2.51964         0.00075
| 16>    H        3.04454         1.22930         0.00068
| 17>    H        3.03462        -1.21095         0.00025
| 18>    H       -1.93708         2.03668         0.00043
| 19>    H       -3.37948        -0.05719        -0.00005
| 20> *
| 21>
| 22>                          ****END OF INPUT****
 Total Charge           Charge          ....    0
 Multiplicity           Mult            ....    1
 Number of Electrons    NEL             ....   62
Dispersion correction           -0.027583466
FINAL SINGLE POINT ENERGY      -379.622519246793
Dispersion correction            ... done
Dispersion correction           -0.027613159
FINAL SINGLE POINT ENERGY      -379.624861008860
Dispersion correction            ... done
Dispersion correction           -0.027607717
FINAL SINGLE POINT ENERGY      -379.624920214197
Dispersion correction            ... done
Dispersion correction           -0.027604272
FINAL SINGLE POINT ENERGY      -379.624929819593
Dispersion correction            ... done
Dispersion correction           -0.027602853
FINAL SINGLE POINT ENERGY      -379.624932238899
Dispersion correction            ... done
                    ***********************HURRAY********************

CARTESIAN COORDINATES (ANGSTROEM)
---------------------------------
  C      0.918630   -1.412450    0.000059
  C     -0.286826   -0.695624    0.000081
  C     -0.259743    0.725344    0.000340
  C      0.934637    1.452718    0.000552
  C      2.119333    0.717805    0.000513
  C      2.111535   -0.694013    0.000273
  N     -1.592020    1.095092    0.000306
  C     -2.330768   -0.067941    0.000030
  N     -1.597924   -1.148567   -0.000114
  H      0.902495   -2.504172   -0.000137
  H      0.944722    2.545373    0.000754
  H      3.074697    1.247785    0.000681
  H      3.063066   -1.230430    0.000256
  H     -1.956748    2.038533    0.000451
  H     -3.422268   -0.045394   -0.000056

 Multiplicity           Mult            ....    1
 Number of Electrons    NEL             ....   62
 Basis Dimension        Dim             ....  156

ORBITAL ENERGIES
----------------

  NO   OCC          E(Eh)            E(eV)
   0   2.0000     -14.387124      -391.4936
   1   2.0000     -14.308180      -389.3454
   2   2.0000     -10.254320      -279.0342
   3   2.0000     -10.225220      -278.2424
   4   2.0000     -10.205877      -277.7160
   5   2.0000     -10.196898      -277.4717
   6   2.0000     -10.190443      -277.2960
   7   2.0000     -10.187135      -277.2060
   8   2.0000     -10.185313      -277.1565
   9   2.0000      -1.011584       -27.5266
  10   2.0000      -0.872888       -23.7525
  11   2.0000      -0.836353       -22.7583
  12   2.0000      -0.736940       -20.0532
  13   2.0000      -0.730041       -19.8654
  14   2.0000      -0.630143       -17.1471
  15   2.0000      -0.618617       -16.8334
  16   2.0000      -0.596261       -16.2251
  17   2.0000      -0.546299       -14.8656
  18   2.0000      -0.500468       -13.6184
  19   2.0000      -0.482087       -13.1183
  20   2.0000      -0.446834       -12.1590
  21   2.0000      -0.444724       -12.1016
  22   2.0000      -0.435946       -11.8627
  23   2.0000      -0.418897       -11.3988
  24   2.0000      -0.368734       -10.0338
  25   2.0000      -0.358554        -9.7568
  26   2.0000      -0.345504        -9.4016
  27   2.0000      -0.311698        -8.4817
  28   2.0000      -0.272067        -7.4033
  29   2.0000      -0.235476        -6.4076
  30   2.0000      -0.231323        -6.2946
  31   0.0000      -0.023792        -0.6474
  32   0.0000       0.013586         0.3697
  33   0.0000       0.044605         1.2138
  34   0.0000       0.048456         1.3185
  35   0.0000       0.070130         1.9083

MULLIKEN ATOMIC CHARGES
-----------------------
   0 C :   -0.057516
   1 C :    0.037228
   2 C :    0.106621
   3 C :   -0.077798
   4 C :    0.021785
   5 C :    0.023795
   6 N :   -0.073950
   7 C :    0.108826
   8 N :   -0.124756
   9 H :   -0.023133
  10 H :   -0.037935
  11 H :   -0.020057
  12 H :   -0.021021
  13 H :    0.120301
  14 H :    0.017610
Sum of atomic charges:   -0.0000000

LOEWDIN ATOMIC CHARGES
----------------------
   0 C :   -0.022102
   1 C :   -0.027732
   2 C :   -0.004905
   3 C :   -0.057641
   4 C :   -0.029063
   5 C :   -0.040136
   6 N :    0.049857
   7 C :    0.040357
   8 N :   -0.126324
   9 H :    0.032755
  10 H :    0.025030
  11 H :    0.025679
  12 H :    0.025492
  13 H :    0.088821
  14 H :    0.019913

  Mayer bond orders larger than 0.100000
B(  0-C ,  1-C ) :   1.3084 B(  0-C ,  3-C ) :   0.1129 B(  0-C ,  5-C ) :   1.3915
B(  0-C ,  9-H ) :   1.0120 B(  1-C ,  2-C ) :   1.2841 B(  1-C ,  8-N ) :   1.3256
B(  2-C ,  3-C ) :   1.2935 B(  2-C ,  6-N ) :   1.1532 B(  3-C ,  4-C ) :   1.3964
B(  3-C , 10-H ) :   1.0117 B(  4-C ,  5-C ) :   1.3303 B(  4-C , 11-H ) :   0.9811
B(  5-C , 12-H ) :   0.9849 B(  6-N ,  7-C ) :   1.1726 B(  6-N , 13-H ) :   0.9304
B(  7-C ,  8-N ) :   1.6909 B(  7-C , 14-H ) :   0.9734

Dispersion correction           -0.027602827
FINAL SINGLE POINT ENERGY      -379.624932679471

DIPOLE MOMENT
-------------
                                X             Y             Z
Electronic contribution:     -2.92041      -0.52354      -0.00032
Nuclear contribution   :      2.59619       1.84676       0.00055
                        -----------------------------------------
Total Dipole Moment    :     -0.32422       1.32323       0.00022
                        -----------------------------------------
Magnitude (a.u.)       :      1.36237
Magnitude (Debye)      :      3.46287

Rotational constants in cm-1:     0.130827     0.055688     0.039061
Rotational constants in MHz :  3922.085348  1669.483283  1171.023080

                             ****ORCA TERMINATED NORMALLY****
TOTAL RUN TIME: 0 days 0 hours 3 minutes 47 seconds 830 msec
