                         Program Version 4.2.0 -  RELEASE  -
|  1> # ORCA input file
|  2> # SCF done        -32.360129205050          0.000766394304
|  3> ! B3LYP/G D3BJ Opt RIJCOSX def2-SVP def2/J
|  4> * xyz 0 1
|  5>    C       -1.15939        -1.41651         0.03156
|  6>    C       -2.34464        -0.73435        -0.00294
|  7>    C       -2.36580         0.66816        -0.07621
|  8>    C       -1.20170         1.38572        -0.11415
|  9>    C        0.03318         0.71161        -0.08109
| 10>    C        0.05455        -0.70568        -0.00799
| 11>    N        1.23100        -1.37048         0.02136
| 12>    C        2.33720        -0.67687        -0.02004
| 13>    C        2.31566         0.75054        -0.09164
| 14>    N        1.18900         1.41109        -0.12008
| 15>    C        3.58011         1.54395        -0.13694
| 16>    C        3.62485        -1.43275         0.00807
| 17>    H       -1.12085        -2.49333         0.08768
| 18>    H       -3.28030        -1.27358         0.02593
| 19>    H       -3.31728         1.17901        -0.10254
| 20>    H       -1.19585         2.46324        -0.17003
| 21>    H        4.17852         1.25682        -1.00030
| 22>    H        4.17304         1.36518         0.75894
| 23>    H        3.33732         2.60074        -0.20241
| 24>    H        3.41414        -2.49588         0.08210
| 25>    H        4.23019        -1.12368         0.85906
| 26>    H        4.19641        -1.24157        -0.89936
| 27> *
| 28>
| 29>                          ****END OF INPUT****
 Total Charge           Charge          ....    0
 Multiplicity           Mult            ....    1
 Number of Electrons    NEL             ....   84
Dispersion correction           -0.043611900
FINAL SINGLE POINT ENERGY      -496.289310651428
Dispersion correction            ... done
Dispersion correction           -0.043365415
FINAL SINGLE POINT ENERGY      -496.292041713860
Dispersion correction            ... done
Dispersion correction           -0.043342618
FINAL SINGLE POINT ENERGY      -496.292115596722
Dispersion correction            ... done
Dispersion correction           -0.043342481
FINAL SINGLE POINT ENERGY      -496.292124767114
Dispersion correction            ... done
Dispersion correction           -0.043346617
FINAL SINGLE POINT ENERGY      -496.292121511836
Dispersion correction            ... done
                    ***********************HURRAY********************

CARTESIAN COORDINATES (ANGSTROEM)
---------------------------------
  C     -1.182460   -1.425103    0.011781
  C     -2.381345   -0.742175   -0.011950
  C     -2.402305    0.675477   -0.063149
  C     -1.224258    1.393349   -0.097060
  C      0.021525    0.715533   -0.079668
  C      0.042754   -0.710836   -0.016734
  N      1.225890   -1.382522    0.016770
  C      2.338416   -0.685883   -0.019292
  C      2.316788    0.758502   -0.097203
  N      1.184087    1.421923   -0.123389
  C      3.600346    1.539844   -0.147930
  C      3.645358   -1.427961    0.020364
  H     -1.132692   -2.515158    0.055067
  H     -3.324232   -1.293603    0.010678
  H     -3.361057    1.199322   -0.076930
  H     -1.207550    2.484366   -0.140238
  H      4.225370    1.233823   -1.003331
  H      4.206008    1.375458    0.758877
  H      3.366316    2.608629   -0.235441
  H      3.446001   -2.502859    0.118088
  H      4.271990   -1.096706    0.865100
  H      4.234411   -1.252040   -0.895428

 Multiplicity           Mult            ....    1
 Number of Electrons    NEL             ....   84
 Basis Dimension        Dim             ....  218

ORBITAL ENERGIES
----------------

  NO   OCC          E(Eh)            E(eV)
   0   2.0000     -14.330646      -389.9567
   1   2.0000     -14.330496      -389.9526
   2   2.0000     -10.236984      -278.5625
   3   2.0000     -10.236814      -278.5579
   4   2.0000     -10.225291      -278.2443
   5   2.0000     -10.225015      -278.2368
   6   2.0000     -10.200043      -277.5573
   7   2.0000     -10.199773      -277.5499
   8   2.0000     -10.195019      -277.4206
   9   2.0000     -10.194927      -277.4181
  10   2.0000     -10.193879      -277.3895
  11   2.0000     -10.193752      -277.3861
  12   2.0000      -0.972298       -26.4576
  13   2.0000      -0.901101       -24.5202
  14   2.0000      -0.848031       -23.0761
  15   2.0000      -0.783818       -21.3288
  16   2.0000      -0.752806       -20.4849
  17   2.0000      -0.713981       -19.4284
  18   2.0000      -0.708161       -19.2700
  19   2.0000      -0.624297       -16.9880
  20   2.0000      -0.621579       -16.9140
  21   2.0000      -0.602577       -16.3969
  22   2.0000      -0.548895       -14.9362
  23   2.0000      -0.519948       -14.1485
  24   2.0000      -0.488241       -13.2857
  25   2.0000      -0.468492       -12.7483
  26   2.0000      -0.459746       -12.5103
  27   2.0000      -0.436270       -11.8715
  28   2.0000      -0.422469       -11.4960
  29   2.0000      -0.413190       -11.2435
  30   2.0000      -0.413001       -11.2383
  31   2.0000      -0.409530       -11.1439
  32   2.0000      -0.401328       -10.9207
  33   2.0000      -0.399364       -10.8672
  34   2.0000      -0.365463        -9.9448
  35   2.0000      -0.364047        -9.9062
  36   2.0000      -0.342012        -9.3066
  37   2.0000      -0.335119        -9.1191
  38   2.0000      -0.298051        -8.1104
  39   2.0000      -0.252904        -6.8819
  40   2.0000      -0.245647        -6.6844
  41   2.0000      -0.243194        -6.6176
  42   0.0000      -0.066496        -1.8094
  43   0.0000      -0.027079        -0.7369
  44   0.0000       0.007624         0.2074
  45   0.0000       0.050954         1.3865
  46   0.0000       0.067794         1.8448

MULLIKEN ATOMIC CHARGES
-----------------------
   0 C :   -0.006077
   1 C :    0.036899
   2 C :    0.036248
   3 C :   -0.006274
   4 C :    0.009493
   5 C :    0.009143
   6 N :   -0.027958
   7 C :   -0.155200
   8 C :   -0.155719
   9 N :   -0.027713
  10 C :    0.111321
  11 C :    0.110488
  12 H :   -0.026000
  13 H :   -0.012577
  14 H :   -0.012993
  15 H :   -0.026273
  16 H :    0.020862
  17 H :    0.024372
  18 H :    0.026294
  19 H :    0.026533
  20 H :    0.020692
  21 H :    0.024438
Sum of atomic charges:   -0.0000000

LOEWDIN ATOMIC CHARGES
----------------------
   0 C :   -0.018207
   1 C :   -0.020812
   2 C :   -0.020853
   3 C :   -0.018089
   4 C :   -0.012516
   5 C :   -0.012498
   6 N :   -0.058735
   7 C :   -0.005307
   8 C :   -0.005379
   9 N :   -0.058645
  10 C :   -0.054402
  11 C :   -0.054604
  12 H :    0.032288
  13 H :    0.029086
  14 H :    0.028999
  15 H :    0.032227
  16 H :    0.035443
  17 H :    0.036470
  18 H :    0.036719
  19 H :    0.036823
  20 H :    0.035341
  21 H :    0.036651

  Mayer bond orders larger than 0.100000
B(  0-C ,  1-C ) :   1.4367 B(  0-C ,  3-C ) :   0.1096 B(  0-C ,  5-C ) :   1.2584
B(  0-C , 12-H ) :   0.9958 B(  1-C ,  2-C ) :   1.2508 B(  1-C , 13-H ) :   0.9874
B(  2-C ,  3-C ) :   1.4372 B(  2-C , 14-H ) :   0.9875 B(  3-C ,  4-C ) :   1.2583
B(  3-C , 15-H ) :   0.9961 B(  4-C ,  5-C ) :   1.2409 B(  4-C ,  9-N ) :   1.3794
B(  5-C ,  6-N ) :   1.3790 B(  6-N ,  7-C ) :   1.7028 B(  7-C ,  8-C ) :   1.1526
B(  7-C , 11-C ) :   1.1043 B(  8-C ,  9-N ) :   1.7023 B(  8-C , 10-C ) :   1.1028
B( 10-C , 16-H ) :   0.9381 B( 10-C , 17-H ) :   0.9395 B( 10-C , 18-H ) :   0.9423
B( 11-C , 19-H ) :   0.9420 B( 11-C , 20-H ) :   0.9381 B( 11-C , 21-H ) :   0.9391

Dispersion correction           -0.043349205
FINAL SINGLE POINT ENERGY      -496.292116474659

DIPOLE MOMENT
-------------
                                X             Y             Z
Electronic contribution:     -7.26427      -0.11068       0.03087
Nuclear contribution   :      7.53717       0.11462      -0.03219
                        -----------------------------------------
Total Dipole Moment    :      0.27289       0.00394      -0.00132
                        -----------------------------------------
Magnitude (a.u.)       :      0.27292
Magnitude (Debye)      :      0.69371

Rotational constants in cm-1:     0.072868     0.023687     0.017997
Rotational constants in MHz :  2184.518024   710.103817   539.522366

                             ****ORCA TERMINATED NORMALLY****
TOTAL RUN TIME: 0 days 0 hours 7 minutes 40 seconds 442 msec
