                         Program Version 4.2.0 -  RELEASE  -
|  1> # ORCA input file
|  2> # SCF done        -27.446332867130          0.000535854136
|  3> ! B3LYP/G D3BJ Opt RIJCOSX def2-SVP def2/J
|  4> * xyz 0 1
|  5>    C       -1.27902         0.13405        -0.00208
|  6>    C       -0.36946         1.16434         0.00092
|  7>    N       -0.83087         2.51121         0.00360
|  8>    O       -2.03494         2.67728         0.00364
|  9>    O       -0.02026         3.41485         0.00283
| 10>    C        0.98959         0.71373         0.00115
| 11>    C        2.22056         1.55787         0.00404
| 12>    C        1.03138        -0.64600        -0.00135
| 13>    S       -0.52435        -1.38366        -0.00424
| 14>    H       -2.34686         0.23011        -0.00291
| 15>    H        1.96948         2.61254         0.00735
| 16>    H        2.82192         1.33913        -0.87674
| 17>    H        2.82178         1.33336         0.88344
| 18>    H        1.90630        -1.26516        -0.00156
| 19> *
| 20>
| 21>                          ****END OF INPUT****
 Total Charge           Charge          ....    0
 Multiplicity           Mult            ....    1
 Number of Electrons    NEL             ....   74
Dispersion correction           -0.027054204
FINAL SINGLE POINT ENERGY      -796.441490629518
Dispersion correction            ... done
Dispersion correction           -0.026857218
FINAL SINGLE POINT ENERGY      -796.443886878297
Dispersion correction            ... done
Dispersion correction           -0.026840213
FINAL SINGLE POINT ENERGY      -796.443844785081
Dispersion correction            ... done
FINAL SINGLE POINT ENERGY      -796.444035750330
Dispersion correction            ... done
Dispersion correction           -0.026836693
FINAL SINGLE POINT ENERGY      -796.444101767895
Dispersion correction            ... done
Dispersion correction           -0.026837693
FINAL SINGLE POINT ENERGY      -796.444114077826
Dispersion correction            ... done
                    ***********************HURRAY********************

CARTESIAN COORDINATES (ANGSTROEM)
---------------------------------
  C     -1.302483    0.126595   -0.001673
  C     -0.378911    1.149380    0.000647
  N     -0.863690    2.528554    0.001894
  O     -2.074915    2.691906    0.002323
  O     -0.047038    3.438026    0.001829
  C      0.997877    0.713898    0.001425
  C      2.247446    1.557825    0.004310
  C      1.036585   -0.661460   -0.000626
  S     -0.532193   -1.396989   -0.003536
  H     -2.383362    0.238414   -0.002694
  H      2.002392    2.623562    0.012649
  H      2.860044    1.341881   -0.885806
  H      2.864708    1.328568    0.887796
  H      1.928790   -1.286510   -0.000448

 Multiplicity           Mult            ....    1
 Number of Electrons    NEL             ....   74
 Basis Dimension        Dim             ....  155

ORBITAL ENERGIES
----------------

  NO   OCC          E(Eh)            E(eV)
   0   2.0000     -88.905560     -2419.2433
   1   2.0000     -19.164181      -521.4839
   2   2.0000     -19.161571      -521.4129
   3   2.0000     -14.564336      -396.3157
   4   2.0000     -10.254435      -279.0374
   5   2.0000     -10.244010      -278.7537
   6   2.0000     -10.231807      -278.4216
   7   2.0000     -10.230635      -278.3897
   8   2.0000     -10.198946      -277.5274
   9   2.0000      -8.000734      -217.7110
  10   2.0000      -5.968618      -162.4144
  11   2.0000      -5.964552      -162.3037
  12   2.0000      -5.962430      -162.2460
  13   2.0000      -1.224625       -33.3237
  14   2.0000      -1.049013       -28.5451
  15   2.0000      -0.915064       -24.9002
  16   2.0000      -0.806963       -21.9586
  17   2.0000      -0.781816       -21.2743
  18   2.0000      -0.693893       -18.8818
  19   2.0000      -0.675500       -18.3813
  20   2.0000      -0.593087       -16.1387
  21   2.0000      -0.562182       -15.2977
  22   2.0000      -0.543907       -14.8005
  23   2.0000      -0.534194       -14.5362
  24   2.0000      -0.504202       -13.7200
  25   2.0000      -0.470456       -12.8018
  26   2.0000      -0.437997       -11.9185
  27   2.0000      -0.437105       -11.8942
  28   2.0000      -0.423400       -11.5213
  29   2.0000      -0.397748       -10.8233
  30   2.0000      -0.394366       -10.7312
  31   2.0000      -0.369451       -10.0533
  32   2.0000      -0.314078        -8.5465
  33   2.0000      -0.311340        -8.4720
  34   2.0000      -0.294129        -8.0037
  35   2.0000      -0.283380        -7.7112
  36   2.0000      -0.263449        -7.1688
  37   0.0000      -0.089190        -2.4270
  38   0.0000      -0.034807        -0.9471
  39   0.0000       0.023584         0.6417
  40   0.0000       0.050905         1.3852
  41   0.0000       0.064713         1.7609

MULLIKEN ATOMIC CHARGES
-----------------------
   0 C :   -0.105367
   1 C :    0.130863
   2 N :    0.239847
   3 O :   -0.249616
   4 O :   -0.240512
   5 C :   -0.051211
   6 C :    0.086052
   7 C :   -0.140424
   8 S :    0.146591
   9 H :    0.048547
  10 H :    0.046170
  11 H :    0.029825
  12 H :    0.029422
  13 H :    0.029813
Sum of atomic charges:    0.0000000

LOEWDIN ATOMIC CHARGES
----------------------
   0 C :   -0.166951
   1 C :   -0.069640
   2 N :    0.278983
   3 O :   -0.210634
   4 O :   -0.202474
   5 C :   -0.046772
   6 C :   -0.050822
   7 C :   -0.191600
   8 S :    0.478241
   9 H :    0.040320
  10 H :    0.034628
  11 H :    0.039368
  12 H :    0.039213
  13 H :    0.028140

  Mayer bond orders larger than 0.100000
B(  0-C ,  1-C ) :   1.4979 B(  0-C ,  8-S ) :   1.2166 B(  0-C ,  9-H ) :   0.9490
B(  1-C ,  2-N ) :   0.8974 B(  1-C ,  5-C ) :   1.2500 B(  2-N ,  3-O ) :   1.5343
B(  2-N ,  4-O ) :   1.5132 B(  3-O ,  4-O ) :   0.2760 B(  5-C ,  6-C ) :   1.0833
B(  5-C ,  7-C ) :   1.5600 B(  6-C , 10-H ) :   0.9403 B(  6-C , 11-H ) :   0.9473
B(  6-C , 12-H ) :   0.9472 B(  7-C ,  8-S ) :   1.1548 B(  7-C , 13-H ) :   0.9648

Dispersion correction           -0.026837725
FINAL SINGLE POINT ENERGY      -796.444115645321

DIPOLE MOMENT
-------------
                                X             Y             Z
Electronic contribution:     -6.90719      -1.37440      -0.01074
Nuclear contribution   :      7.60748      -0.05968       0.00964
                        -----------------------------------------
Total Dipole Moment    :      0.70030      -1.43408      -0.00110
                        -----------------------------------------
Magnitude (a.u.)       :      1.59593
Magnitude (Debye)      :      4.05654

Rotational constants in cm-1:     0.077208     0.040240     0.026585
Rotational constants in MHz :  2314.644140  1206.364502   797.007253

                             ****ORCA TERMINATED NORMALLY****
TOTAL RUN TIME: 0 days 0 hours 4 minutes 36 seconds 882 msec
