                         Program Version 4.2.0 -  RELEASE  -
|  1> # ORCA input file
|  2> # SCF done        -38.792016002617          0.000660636090
|  3> ! B3LYP/G D3BJ Opt RIJCOSX def2-SVP def2/J
|  4> * xyz 0 1
|  5>    C       -0.73251         1.18839        -0.03033
|  6>    C        0.64819         1.20162        -0.02786
|  7>    F        1.26948         2.39769        -0.02507
|  8>    C        1.41785         0.03592        -0.02967
|  9>    O        2.76593         0.17527        -0.03243
| 10>    C        3.55507        -0.99046        -0.05164
| 11>    C        0.72770        -1.17254        -0.02948
| 12>    C       -0.65301        -1.18577        -0.03140
| 13>    C       -1.42266        -0.02006        -0.03422
| 14>    O       -2.77071        -0.15941        -0.04147
| 15>    C       -3.55981         1.00634        -0.06148
| 16>    F       -1.27431        -2.38183        -0.03205
| 17>    H       -1.24553         2.13537        -0.02961
| 18>    H        4.58666        -0.64306        -0.06328
| 19>    H        3.36326        -1.58854        -0.94776
| 20>    H        3.38787        -1.60220         0.84012
| 21>    H        1.24072        -2.11951        -0.02833
| 22>    H       -4.59134         0.65894        -0.07719
| 23>    H       -3.36497         1.60589        -0.95596
| 24>    H       -3.39565         1.61662         0.83185
| 25> *
| 26>
| 27>                          ****END OF INPUT****
 Total Charge           Charge          ....    0
 Multiplicity           Mult            ....    1
 Number of Electrons    NEL             ....   90
Dispersion correction           -0.033244856
FINAL SINGLE POINT ENERGY      -659.296803579338
Dispersion correction            ... done
Dispersion correction           -0.033119660
FINAL SINGLE POINT ENERGY      -659.298092979135
Dispersion correction            ... done
Dispersion correction           -0.033107233
FINAL SINGLE POINT ENERGY      -659.298120188287
Dispersion correction            ... done
Dispersion correction           -0.033115963
FINAL SINGLE POINT ENERGY      -659.298111827966
Dispersion correction            ... done
Dispersion correction           -0.033121228
FINAL SINGLE POINT ENERGY      -659.298115294026
Dispersion correction            ... done
                    ***********************HURRAY********************

CARTESIAN COORDINATES (ANGSTROEM)
---------------------------------
  C     -0.727383    1.203861   -0.041564
  C      0.663397    1.214501   -0.039853
  F      1.319468    2.382576   -0.037470
  C      1.416767    0.031282   -0.039915
  O      2.761983    0.175117   -0.037138
  C      3.568315   -0.977808   -0.038608
  C      0.722605   -1.187990   -0.042304
  C     -0.668174   -1.198628   -0.044683
  C     -1.421546   -0.015412   -0.043438
  O     -2.766766   -0.159247   -0.043397
  C     -3.573090    0.993669   -0.048940
  F     -1.324240   -2.366703   -0.048018
  H     -1.245507    2.161621   -0.041194
  H      4.608401   -0.624665   -0.039857
  H      3.395797   -1.598346   -0.936710
  H      3.398096   -1.598711    0.859709
  H      1.240726   -2.145751   -0.042542
  H     -4.613175    0.640524   -0.050843
  H     -3.399114    1.611790   -0.948450
  H     -3.404330    1.616989    0.847954

 Multiplicity           Mult            ....    1
 Number of Electrons    NEL             ....   90
 Basis Dimension        Dim             ....  208

ORBITAL ENERGIES
----------------

  NO   OCC          E(Eh)            E(eV)
   0   2.0000     -24.694444      -671.9700
   1   2.0000     -24.694436      -671.9698
   2   2.0000     -19.170771      -521.6632
   3   2.0000     -19.170765      -521.6630
   4   2.0000     -10.270469      -279.4737
   5   2.0000     -10.270399      -279.4718
   6   2.0000     -10.257275      -279.1146
   7   2.0000     -10.257181      -279.1121
   8   2.0000     -10.252152      -278.9752
   9   2.0000     -10.252142      -278.9750
  10   2.0000     -10.203430      -277.6495
  11   2.0000     -10.203350      -277.6473
  12   2.0000      -1.205028       -32.7905
  13   2.0000      -1.204776       -32.7836
  14   2.0000      -1.068262       -29.0689
  15   2.0000      -1.067642       -29.0520
  16   2.0000      -0.860646       -23.4194
  17   2.0000      -0.769882       -20.9496
  18   2.0000      -0.753270       -20.4975
  19   2.0000      -0.728176       -19.8147
  20   2.0000      -0.677175       -18.4269
  21   2.0000      -0.630870       -17.1668
  22   2.0000      -0.607027       -16.5180
  23   2.0000      -0.563497       -15.3335
  24   2.0000      -0.546937       -14.8829
  25   2.0000      -0.541837       -14.7441
  26   2.0000      -0.520428       -14.1616
  27   2.0000      -0.490663       -13.3516
  28   2.0000      -0.486525       -13.2390
  29   2.0000      -0.479549       -13.0492
  30   2.0000      -0.460719       -12.5368
  31   2.0000      -0.459922       -12.5151
  32   2.0000      -0.458874       -12.4866
  33   2.0000      -0.457820       -12.4579
  34   2.0000      -0.436103       -11.8670
  35   2.0000      -0.428650       -11.6642
  36   2.0000      -0.384021       -10.4497
  37   2.0000      -0.377182       -10.2637
  38   2.0000      -0.369950       -10.0668
  39   2.0000      -0.357123        -9.7178
  40   2.0000      -0.346295        -9.4232
  41   2.0000      -0.344045        -9.3619
  42   2.0000      -0.299828        -8.1587
  43   2.0000      -0.257608        -7.0099
  44   2.0000      -0.208608        -5.6765
  45   0.0000      -0.012573        -0.3421
  46   0.0000       0.008289         0.2256
  47   0.0000       0.053846         1.4652
  48   0.0000       0.060393         1.6434
  49   0.0000       0.075999         2.0680

MULLIKEN ATOMIC CHARGES
-----------------------
   0 C :   -0.184605
   1 C :    0.264199
   2 F :   -0.187911
   3 C :    0.172436
   4 O :   -0.306497
   5 C :    0.178788
   6 C :   -0.184567
   7 C :    0.264157
   8 C :    0.172447
   9 O :   -0.306501
  10 C :    0.178783
  11 F :   -0.187918
  12 H :   -0.018184
  13 H :    0.038398
  14 H :    0.021686
  15 H :    0.021693
  16 H :   -0.018185
  17 H :    0.038396
  18 H :    0.021618
  19 H :    0.021765
Sum of atomic charges:   -0.0000000

LOEWDIN ATOMIC CHARGES
----------------------
   0 C :   -0.090621
   1 C :    0.057903
   2 F :   -0.059856
   3 C :    0.011276
   4 O :   -0.093879
   5 C :    0.080087
   6 C :   -0.090622
   7 C :    0.057903
   8 C :    0.011274
   9 O :   -0.093879
  10 C :    0.080087
  11 F :   -0.059856
  12 H :    0.038399
  13 H :    0.029304
  14 H :    0.013683
  15 H :    0.013707
  16 H :    0.038398
  17 H :    0.029304
  18 H :    0.013711
  19 H :    0.013677

  Mayer bond orders larger than 0.100000
B(  0-C ,  1-C ) :   1.3388 B(  0-C ,  6-C ) :   0.1139 B(  0-C ,  8-C ) :   1.2403
B(  0-C , 12-H ) :   1.0073 B(  1-C ,  2-F ) :   1.1253 B(  1-C ,  3-C ) :   1.3279
B(  3-C ,  4-O ) :   1.1508 B(  3-C ,  6-C ) :   1.2404 B(  4-O ,  5-C ) :   0.9671
B(  5-C , 13-H ) :   0.9772 B(  5-C , 14-H ) :   0.9654 B(  5-C , 15-H ) :   0.9656
B(  6-C ,  7-C ) :   1.3388 B(  6-C , 16-H ) :   1.0073 B(  7-C ,  8-C ) :   1.3279
B(  7-C , 11-F ) :   1.1253 B(  8-C ,  9-O ) :   1.1508 B(  9-O , 10-C ) :   0.9671
B( 10-C , 17-H ) :   0.9772 B( 10-C , 18-H ) :   0.9655 B( 10-C , 19-H ) :   0.9655

Dispersion correction           -0.033122098
FINAL SINGLE POINT ENERGY      -659.298120122530

DIPOLE MOMENT
-------------
                                X             Y             Z
Electronic contribution:      0.00001       0.00002       0.00974
Nuclear contribution   :     -0.00000      -0.00003      -0.01258
                        -----------------------------------------
Total Dipole Moment    :      0.00001      -0.00001      -0.00284
                        -----------------------------------------
Magnitude (a.u.)       :      0.00284
Magnitude (Debye)      :      0.00723

Rotational constants in cm-1:     0.050911     0.021469     0.015190
Rotational constants in MHz :  1526.260442   643.636501   455.374715

                             ****ORCA TERMINATED NORMALLY****
TOTAL RUN TIME: 0 days 0 hours 5 minutes 45 seconds 204 msec
