                         Program Version 4.2.0 -  RELEASE  -
|  1> # ORCA input file
|  2> # SCF done        -20.234637206244          0.000385093975
|  3> ! B3LYP/G D3BJ Opt RIJCOSX def2-SVP def2/J
|  4> * xyz 0 1
|  5>    C       -0.74907         1.16442         0.00412
|  6>    C        0.60335         1.24759         0.00526
|  7>    C        1.43584         0.06888         0.00520
|  8>    O        2.65166         0.03279         0.00625
|  9>    N        0.71388        -1.12611         0.00411
| 10>    C       -0.63409        -1.21436         0.00301
| 11>    C       -1.39889        -0.09384         0.00292
| 12>    H       -1.34988         2.06243         0.00394
| 13>    H        1.11660         2.19602         0.00613
| 14>    H        1.27687        -1.96804         0.00421
| 15>    H       -1.05616        -2.20879         0.00225
| 16>    H       -2.47327        -0.15905         0.00201
| 17> *
| 18>
| 19>                          ****END OF INPUT****
 Total Charge           Charge          ....    0
 Multiplicity           Mult            ....    1
 Number of Electrons    NEL             ....   50
Dispersion correction           -0.019333491
FINAL SINGLE POINT ENERGY      -323.306148526799
Dispersion correction            ... done
Dispersion correction           -0.019220690
FINAL SINGLE POINT ENERGY      -323.307612255196
Dispersion correction            ... done
Dispersion correction           -0.019206450
FINAL SINGLE POINT ENERGY      -323.307659841007
Dispersion correction            ... done
Dispersion correction           -0.019203920
FINAL SINGLE POINT ENERGY      -323.307670346785
Dispersion correction            ... done
Dispersion correction           -0.019205055
FINAL SINGLE POINT ENERGY      -323.307672301888
Dispersion correction            ... done
                    ***********************HURRAY********************

CARTESIAN COORDINATES (ANGSTROEM)
---------------------------------
  C     -0.753175    1.169216    0.004109
  C      0.611028    1.256278    0.005263
  C      1.456836    0.070206    0.005731
  O      2.676576    0.038860    0.005857
  N      0.712973   -1.132044    0.004243
  C     -0.645522   -1.223246    0.003014
  C     -1.417217   -0.096140    0.002982
  H     -1.352463    2.083770    0.003966
  H      1.133857    2.213529    0.006057
  H      1.283054   -1.973257    0.004274
  H     -1.064890   -2.231759    0.002023
  H     -2.504219   -0.173474    0.001891

 Multiplicity           Mult            ....    1
 Number of Electrons    NEL             ....   50
 Basis Dimension        Dim             ....  123

ORBITAL ENERGIES
----------------

  NO   OCC          E(Eh)            E(eV)
   0   2.0000     -19.088311      -519.4193
   1   2.0000     -14.387913      -391.5150
   2   2.0000     -10.284737      -279.8619
   3   2.0000     -10.255274      -279.0602
   4   2.0000     -10.216271      -277.9989
   5   2.0000     -10.201355      -277.5930
   6   2.0000     -10.195290      -277.4279
   7   2.0000      -1.023134       -27.8409
   8   2.0000      -0.948943       -25.8220
   9   2.0000      -0.813557       -22.1380
  10   2.0000      -0.752571       -20.4785
  11   2.0000      -0.650769       -17.7083
  12   2.0000      -0.635168       -17.2838
  13   2.0000      -0.562573       -15.3084
  14   2.0000      -0.508439       -13.8353
  15   2.0000      -0.488076       -13.2812
  16   2.0000      -0.462772       -12.5927
  17   2.0000      -0.442381       -12.0378
  18   2.0000      -0.424066       -11.5394
  19   2.0000      -0.392246       -10.6736
  20   2.0000      -0.379508       -10.3269
  21   2.0000      -0.348184        -9.4746
  22   2.0000      -0.312715        -8.5094
  23   2.0000      -0.253601        -6.9008
  24   2.0000      -0.223933        -6.0935
  25   0.0000      -0.047531        -1.2934
  26   0.0000       0.007994         0.2175
  27   0.0000       0.037231         1.0131
  28   0.0000       0.075631         2.0580
  29   0.0000       0.095985         2.6119

MULLIKEN ATOMIC CHARGES
-----------------------
   0 C :    0.099191
   1 C :   -0.091478
   2 C :    0.136406
   3 O :   -0.241934
   4 N :   -0.081380
   5 C :    0.101876
   6 C :   -0.072102
   7 H :    0.000088
   8 H :   -0.000107
   9 H :    0.131832
  10 H :    0.014634
  11 H :    0.002975
Sum of atomic charges:   -0.0000000

LOEWDIN ATOMIC CHARGES
----------------------
   0 C :    0.010772
   1 C :   -0.067344
   2 C :    0.051371
   3 O :   -0.231364
   4 N :    0.052679
   5 C :    0.052023
   6 C :   -0.095525
   7 H :    0.033579
   8 H :    0.036511
   9 H :    0.092136
  10 H :    0.031490
  11 H :    0.033672

  Mayer bond orders larger than 0.100000
B(  0-C ,  1-C ) :   1.5912 B(  0-C ,  6-C ) :   1.2122 B(  0-C ,  7-H ) :   0.9738
B(  1-C ,  2-C ) :   1.0812 B(  1-C ,  8-H ) :   0.9801 B(  2-C ,  3-O ) :   2.0881
B(  2-C ,  4-N ) :   1.0411 B(  4-N ,  5-C ) :   1.2431 B(  4-N ,  9-H ) :   0.9134
B(  5-C ,  6-C ) :   1.5806 B(  5-C , 10-H ) :   0.9650 B(  6-C , 11-H ) :   0.9780

Dispersion correction           -0.019206147
FINAL SINGLE POINT ENERGY      -323.307672600009

DIPOLE MOMENT
-------------
                                X             Y             Z
Electronic contribution:      2.90028      -0.61686       0.00276
Nuclear contribution   :     -4.35223      -0.02298      -0.00385
                        -----------------------------------------
Total Dipole Moment    :     -1.45195      -0.63984      -0.00110
                        -----------------------------------------
Magnitude (a.u.)       :      1.58668
Magnitude (Debye)      :      4.03302

Rotational constants in cm-1:     0.187864     0.092613     0.062033
Rotational constants in MHz :  5632.016693  2776.479739  1859.688101

                             ****ORCA TERMINATED NORMALLY****
TOTAL RUN TIME: 0 days 0 hours 2 minutes 16 seconds 907 msec
