                         Program Version 4.2.0 -  RELEASE  -
|  1> # ORCA input file
|  2> # SCF done        -24.802645124643          0.000697310832
|  3> ! B3LYP/G D3BJ Opt RIJCOSX def2-SVP def2/J
|  4> * xyz 0 1
|  5>    C        0.68232         1.45304         0.00313
|  6>    C       -0.25963         0.46969         0.00177
|  7>    C        0.32720        -0.84852        -0.00188
|  8>    S       -0.93106        -2.04101        -0.00329
|  9>    C       -2.11500        -0.69245         0.00092
| 10>    N       -1.62356         0.48098         0.00320
| 11>    C       -3.56076        -1.00599         0.00141
| 12>    C        1.68140        -0.83880        -0.00319
| 13>    S        2.26714         0.78568         0.00008
| 14>    H        0.54315         2.51398         0.00573
| 15>    H       -3.71837        -2.08100         0.00326
| 16>    H       -4.03226        -0.57173        -0.87920
| 17>    H       -4.03242        -0.56837         0.88023
| 18>    H        2.37091        -1.65742        -0.00574
| 19> *
| 20>
| 21>                          ****END OF INPUT****
 Total Charge           Charge          ....    0
 Multiplicity           Mult            ....    1
 Number of Electrons    NEL             ....   80
Dispersion correction           -0.031988038
FINAL SINGLE POINT ENERGY     -1082.371059096018
Dispersion correction            ... done
Dispersion correction           -0.031884206
FINAL SINGLE POINT ENERGY     -1082.373331579819
Dispersion correction            ... done
Dispersion correction           -0.031863155
FINAL SINGLE POINT ENERGY     -1082.373437153358
Dispersion correction            ... done
FINAL SINGLE POINT ENERGY     -1082.373452100428
Dispersion correction            ... done
Dispersion correction           -0.031852424
FINAL SINGLE POINT ENERGY     -1082.373450355280
Dispersion correction            ... done
Dispersion correction           -0.031852647
FINAL SINGLE POINT ENERGY     -1082.373446051359
Dispersion correction            ... done
                    ***********************HURRAY********************

CARTESIAN COORDINATES (ANGSTROEM)
---------------------------------
  C      0.697766    1.464969    0.003578
  C     -0.246204    0.461606    0.001606
  C      0.347431   -0.857847   -0.002571
  S     -0.931364   -2.050671   -0.004672
  C     -2.121194   -0.696152    0.000669
  N     -1.626455    0.491864    0.003300
  C     -3.583922   -1.011960    0.001545
  C      1.717857   -0.842952   -0.003357
  S      2.291371    0.798462    0.000539
  H      0.531102    2.540030    0.006788
  H     -3.772416   -2.094000    0.005732
  H     -4.063948   -0.570884   -0.886168
  H     -4.064049   -0.563758    0.885518
  H      2.423084   -1.670627   -0.006078

 Multiplicity           Mult            ....    1
 Number of Electrons    NEL             ....   80
 Basis Dimension        Dim             ....  159

ORBITAL ENERGIES
----------------

  NO   OCC          E(Eh)            E(eV)
   0   2.0000     -88.883018     -2418.6299
   1   2.0000     -88.872936     -2418.3555
   2   2.0000     -14.327555      -389.8726
   3   2.0000     -10.261246      -279.2227
   4   2.0000     -10.224410      -278.2203
   5   2.0000     -10.221154      -278.1317
   6   2.0000     -10.220504      -278.1141
   7   2.0000     -10.215043      -277.9655
   8   2.0000     -10.207853      -277.7698
   9   2.0000      -7.977624      -217.0822
  10   2.0000      -7.968073      -216.8223
  11   2.0000      -5.945814      -161.7938
  12   2.0000      -5.941642      -161.6803
  13   2.0000      -5.938969      -161.6076
  14   2.0000      -5.936360      -161.5366
  15   2.0000      -5.932863      -161.4414
  16   2.0000      -5.928355      -161.3188
  17   2.0000      -0.962946       -26.2031
  18   2.0000      -0.875462       -23.8225
  19   2.0000      -0.795773       -21.6541
  20   2.0000      -0.764079       -20.7916
  21   2.0000      -0.712585       -19.3904
  22   2.0000      -0.693653       -18.8753
  23   2.0000      -0.581588       -15.8258
  24   2.0000      -0.572339       -15.5741
  25   2.0000      -0.540996       -14.7212
  26   2.0000      -0.475277       -12.9330
  27   2.0000      -0.464039       -12.6271
  28   2.0000      -0.450856       -12.2684
  29   2.0000      -0.433475       -11.7955
  30   2.0000      -0.415185       -11.2978
  31   2.0000      -0.411115       -11.1870
  32   2.0000      -0.397265       -10.8101
  33   2.0000      -0.361057        -9.8249
  34   2.0000      -0.347951        -9.4682
  35   2.0000      -0.346669        -9.4333
  36   2.0000      -0.304548        -8.2872
  37   2.0000      -0.277754        -7.5581
  38   2.0000      -0.243190        -6.6175
  39   2.0000      -0.222545        -6.0557
  40   0.0000      -0.043664        -1.1882
  41   0.0000       0.003356         0.0913
  42   0.0000       0.015244         0.4148
  43   0.0000       0.032188         0.8759
  44   0.0000       0.069679         1.8961

MULLIKEN ATOMIC CHARGES
-----------------------
   0 C :   -0.154935
   1 C :    0.105785
   2 C :    0.023762
   3 S :    0.071021
   4 C :   -0.176817
   5 N :   -0.075133
   6 C :    0.123646
   7 C :   -0.182343
   8 S :    0.102347
   9 H :    0.024308
  10 H :    0.014218
  11 H :    0.046845
  12 H :    0.046787
  13 H :    0.030508
Sum of atomic charges:    0.0000000

LOEWDIN ATOMIC CHARGES
----------------------
   0 C :   -0.205299
   1 C :   -0.062385
   2 C :   -0.209639
   3 S :    0.334704
   4 C :   -0.098828
   5 N :   -0.109473
   6 C :   -0.062521
   7 C :   -0.220753
   8 S :    0.446505
   9 H :    0.031641
  10 H :    0.031411
  11 H :    0.048593
  12 H :    0.048588
  13 H :    0.027456

  Mayer bond orders larger than 0.100000
B(  0-C ,  1-C ) :   1.4760 B(  0-C ,  7-C ) :   0.1056 B(  0-C ,  8-S ) :   1.1637
B(  0-C ,  9-H ) :   0.9739 B(  1-C ,  2-C ) :   1.2086 B(  1-C ,  5-N ) :   1.2421
B(  2-C ,  3-S ) :   1.0345 B(  2-C ,  7-C ) :   1.5262 B(  3-S ,  4-C ) :   1.0384
B(  3-S ,  5-N ) :   0.1220 B(  4-C ,  5-N ) :   1.7680 B(  4-C ,  6-C ) :   1.0814
B(  6-C , 10-H ) :   0.9440 B(  6-C , 11-H ) :   0.9481 B(  6-C , 12-H ) :   0.9482
B(  7-C ,  8-S ) :   1.1647 B(  7-C , 13-H ) :   0.9742

Dispersion correction           -0.031853481
FINAL SINGLE POINT ENERGY     -1082.373449189727

DIPOLE MOMENT
-------------
                                X             Y             Z
Electronic contribution:      7.50448       0.22020      -0.00830
Nuclear contribution   :     -7.64986      -0.57763       0.00745
                        -----------------------------------------
Total Dipole Moment    :     -0.14538      -0.35743      -0.00085
                        -----------------------------------------
Magnitude (a.u.)       :      0.38587
Magnitude (Debye)      :      0.98079

Rotational constants in cm-1:     0.110418     0.027944     0.022394
Rotational constants in MHz :  3310.250435   837.739241   671.357190

                             ****ORCA TERMINATED NORMALLY****
TOTAL RUN TIME: 0 days 0 hours 4 minutes 24 seconds 234 msec
