                         Program Version 4.2.0 -  RELEASE  -
|  1> # ORCA input file
|  2> # SCF done        -25.086810603297          0.000449066874
|  3> ! B3LYP/G D3BJ Opt RIJCOSX def2-SVP def2/J
|  4> * xyz 0 1
|  5>    N       -1.04378         1.29541         0.00586
|  6>    C       -2.06579         0.51874         0.00462
|  7>    S       -1.74902        -1.20490         0.00038
|  8>    C       -0.07301        -0.81895         0.00104
|  9>    C        0.08681         0.56767         0.00400
| 10>    S        1.76345         0.95181         0.00429
| 11>    C        2.09411        -0.79202         0.00053
| 12>    N        1.05515        -1.55021        -0.00086
| 13>    C        3.48880        -1.28480        -0.00084
| 14>    H       -3.07461         0.87873         0.00553
| 15>    H        4.18430        -0.45048        -0.00127
| 16>    H        3.66233        -1.90308        -0.88055
| 17>    H        3.66397        -1.90335         0.87838
| 18> *
| 19>
| 20>                          ****END OF INPUT****
 Total Charge           Charge          ....    0
 Multiplicity           Mult            ....    1
 Number of Electrons    NEL             ....   80
Dispersion correction           -0.029939296
FINAL SINGLE POINT ENERGY     -1098.400245514415
Dispersion correction            ... done
Dispersion correction           -0.029926112
FINAL SINGLE POINT ENERGY     -1098.402689428665
Dispersion correction            ... done
Dispersion correction           -0.029906559
FINAL SINGLE POINT ENERGY     -1098.402885389753
Dispersion correction            ... done
FINAL SINGLE POINT ENERGY     -1098.402938719124
Dispersion correction            ... done
Dispersion correction           -0.029878159
FINAL SINGLE POINT ENERGY     -1098.402941949901
Dispersion correction            ... done
Dispersion correction           -0.029877719
FINAL SINGLE POINT ENERGY     -1098.402947373585
Dispersion correction            ... done
                    ***********************HURRAY********************

CARTESIAN COORDINATES (ANGSTROEM)
---------------------------------
  N     -1.060423    1.320734    0.006475
  C     -2.098941    0.533695    0.004159
  S     -1.774692   -1.199871   -0.000115
  C     -0.076478   -0.816905    0.001019
  C      0.068658    0.570080    0.004698
  S      1.767673    0.947884    0.005422
  C      2.102936   -0.797398    0.000711
  N      1.050765   -1.569594   -0.001144
  C      3.514598   -1.289597   -0.000969
  H     -3.131502    0.889444    0.005102
  H      4.229905   -0.455741   -0.002855
  H      3.698612   -1.914880   -0.888961
  H      3.701599   -1.913281    0.887567

 Multiplicity           Mult            ....    1
 Number of Electrons    NEL             ....   80
 Basis Dimension        Dim             ....  154

ORBITAL ENERGIES
----------------

  NO   OCC          E(Eh)            E(eV)
   0   2.0000     -88.889983     -2418.8194
   1   2.0000     -88.887143     -2418.7421
   2   2.0000     -14.345598      -390.3636
   3   2.0000     -14.341002      -390.2385
   4   2.0000     -10.265995      -279.3519
   5   2.0000     -10.258752      -279.1548
   6   2.0000     -10.248268      -278.8695
   7   2.0000     -10.246002      -278.8079
   8   2.0000     -10.211440      -277.8674
   9   2.0000      -7.985325      -217.2917
  10   2.0000      -7.982534      -217.2158
  11   2.0000      -5.953174      -161.9941
  12   2.0000      -5.950304      -161.9160
  13   2.0000      -5.949679      -161.8990
  14   2.0000      -5.947031      -161.8269
  15   2.0000      -5.946402      -161.8098
  16   2.0000      -5.943514      -161.7312
  17   2.0000      -0.993120       -27.0242
  18   2.0000      -0.953215       -25.9383
  19   2.0000      -0.819749       -22.3065
  20   2.0000      -0.789117       -21.4730
  21   2.0000      -0.766981       -20.8706
  22   2.0000      -0.696366       -18.9491
  23   2.0000      -0.611874       -16.6500
  24   2.0000      -0.578567       -15.7436
  25   2.0000      -0.559362       -15.2210
  26   2.0000      -0.484119       -13.1736
  27   2.0000      -0.465515       -12.6673
  28   2.0000      -0.463109       -12.6018
  29   2.0000      -0.445030       -12.1099
  30   2.0000      -0.430960       -11.7270
  31   2.0000      -0.412301       -11.2193
  32   2.0000      -0.402775       -10.9601
  33   2.0000      -0.369238       -10.0475
  34   2.0000      -0.356398        -9.6981
  35   2.0000      -0.322019        -8.7626
  36   2.0000      -0.304383        -8.2827
  37   2.0000      -0.277974        -7.5640
  38   2.0000      -0.266793        -7.2598
  39   2.0000      -0.239579        -6.5193
  40   0.0000      -0.053236        -1.4486
  41   0.0000       0.000527         0.0143
  42   0.0000       0.004567         0.1243
  43   0.0000       0.035738         0.9725
  44   0.0000       0.052825         1.4374

MULLIKEN ATOMIC CHARGES
-----------------------
   0 N :   -0.093055
   1 C :   -0.002561
   2 S :    0.109000
   3 C :   -0.070752
   4 C :   -0.067783
   5 S :    0.115166
   6 C :   -0.186007
   7 N :   -0.086886
   8 C :    0.124722
   9 H :    0.047971
  10 H :    0.014669
  11 H :    0.047734
  12 H :    0.047782
Sum of atomic charges:    0.0000000

LOEWDIN ATOMIC CHARGES
----------------------
   0 N :   -0.102748
   1 C :   -0.121205
   2 S :    0.398900
   3 C :   -0.207329
   4 C :   -0.215746
   5 S :    0.392626
   6 C :   -0.116729
   7 N :   -0.116125
   8 C :   -0.061840
   9 H :    0.022300
  10 H :    0.032811
  11 H :    0.047549
  12 H :    0.047535

  Mayer bond orders larger than 0.100000
B(  0-N ,  1-C ) :   1.6821 B(  0-N ,  2-S ) :   0.1155 B(  0-N ,  4-C ) :   1.3669
B(  1-C ,  2-S ) :   1.1356 B(  1-C ,  9-H ) :   0.9616 B(  2-S ,  3-C ) :   1.1056
B(  3-C ,  4-C ) :   1.3432 B(  3-C ,  7-N ) :   1.3522 B(  4-C ,  5-S ) :   1.0888
B(  5-S ,  6-C ) :   1.1159 B(  5-S ,  7-N ) :   0.1117 B(  6-C ,  7-N ) :   1.6763
B(  6-C ,  8-C ) :   1.0934 B(  8-C , 10-H ) :   0.9419 B(  8-C , 11-H ) :   0.9485
B(  8-C , 12-H ) :   0.9484

Dispersion correction           -0.029878677
FINAL SINGLE POINT ENERGY     -1098.402947735615

DIPOLE MOMENT
-------------
                                X             Y             Z
Electronic contribution:     -6.45825       2.12997       0.00739
Nuclear contribution   :      6.77839      -2.31029      -0.00789
                        -----------------------------------------
Total Dipole Moment    :      0.32014      -0.18032      -0.00050
                        -----------------------------------------
Magnitude (a.u.)       :      0.36743
Magnitude (Debye)      :      0.93393

Rotational constants in cm-1:     0.094899     0.031904     0.023985
Rotational constants in MHz :  2844.992784   956.467541   719.055305

                             ****ORCA TERMINATED NORMALLY****
TOTAL RUN TIME: 0 days 0 hours 4 minutes 10 seconds 769 msec
