                         Program Version 4.2.0 -  RELEASE  -
|  1> # ORCA input file
|  2> # SCF done        -21.354131586220          0.000292835555
|  3> ! B3LYP/G D3BJ Opt RIJCOSX def2-SVP def2/J
|  4> * xyz 0 1
|  5>    C       -2.26046        -0.06591         0.00058
|  6>    C       -1.40792        -1.12137         0.00047
|  7>    C       -0.06599        -0.68714         0.00041
|  8>    C        0.07599         0.69475         0.00046
|  9>    S       -1.46588         1.47389         0.00057
| 10>    C        1.41791         1.12897         0.00040
| 11>    C        2.27045         0.07352         0.00031
| 12>    S        1.47587        -1.46628         0.00026
| 13>    H       -3.33220        -0.08669         0.00064
| 14>    H       -1.71499        -2.15076         0.00043
| 15>    H        1.72498         2.15837         0.00042
| 16>    H        3.34219         0.09430         0.00024
| 17> *
| 18>
| 19>                          ****END OF INPUT****
 Total Charge           Charge          ....    0
 Multiplicity           Mult            ....    1
 Number of Electrons    NEL             ....   72
Dispersion correction           -0.029095144
FINAL SINGLE POINT ENERGY     -1027.050757371698
Dispersion correction            ... done
Dispersion correction           -0.029090200
FINAL SINGLE POINT ENERGY     -1027.052970879299
Dispersion correction            ... done
Dispersion correction           -0.029090422
FINAL SINGLE POINT ENERGY     -1027.053037534949
Dispersion correction            ... done
Dispersion correction           -0.029088481
FINAL SINGLE POINT ENERGY     -1027.053045690060
Dispersion correction            ... done
Dispersion correction           -0.029085841
FINAL SINGLE POINT ENERGY     -1027.053045873997
Dispersion correction            ... done
                    ***********************HURRAY********************

CARTESIAN COORDINATES (ANGSTROEM)
---------------------------------
  C     -2.288689   -0.066748    0.000481
  C     -1.425079   -1.131691    0.000527
  C     -0.066354   -0.691666    0.000517
  C      0.076348    0.699267    0.000544
  S     -1.480938    1.480006    0.000864
  C      1.435070    1.139299    0.000359
  C      2.298680    0.074356    0.000244
  S      1.490938   -1.472413    0.000359
  H     -3.377597   -0.098681    0.000384
  H     -1.752012   -2.171336    0.000440
  H      1.761996    2.178947    0.000347
  H      3.387588    0.106309    0.000123

 Multiplicity           Mult            ....    1
 Number of Electrons    NEL             ....   72
 Basis Dimension        Dim             ....  140

ORBITAL ENERGIES
----------------

  NO   OCC          E(Eh)            E(eV)
   0   2.0000     -88.875791     -2418.4332
   1   2.0000     -88.875776     -2418.4328
   2   2.0000     -10.217676      -278.0371
   3   2.0000     -10.217670      -278.0369
   4   2.0000     -10.215913      -277.9891
   5   2.0000     -10.215538      -277.9789
   6   2.0000     -10.204284      -277.6727
   7   2.0000     -10.204240      -277.6715
   8   2.0000      -7.970469      -216.8875
   9   2.0000      -7.970456      -216.8871
  10   2.0000      -5.938893      -161.6055
  11   2.0000      -5.938884      -161.6052
  12   2.0000      -5.934915      -161.4972
  13   2.0000      -5.934913      -161.4972
  14   2.0000      -5.931115      -161.3939
  15   2.0000      -5.931113      -161.3938
  16   2.0000      -0.901539       -24.5321
  17   2.0000      -0.838325       -22.8120
  18   2.0000      -0.757770       -20.6200
  19   2.0000      -0.706230       -19.2175
  20   2.0000      -0.700035       -19.0489
  21   2.0000      -0.587475       -15.9860
  22   2.0000      -0.561430       -15.2773
  23   2.0000      -0.529772       -14.4158
  24   2.0000      -0.490144       -13.3375
  25   2.0000      -0.465146       -12.6573
  26   2.0000      -0.416289       -11.3278
  27   2.0000      -0.411322       -11.1926
  28   2.0000      -0.389896       -10.6096
  29   2.0000      -0.388019       -10.5585
  30   2.0000      -0.366336        -9.9685
  31   2.0000      -0.339134        -9.2283
  32   2.0000      -0.338888        -9.2216
  33   2.0000      -0.284942        -7.7537
  34   2.0000      -0.234580        -6.3833
  35   2.0000      -0.220898        -6.0109
  36   0.0000      -0.033811        -0.9200
  37   0.0000       0.026784         0.7288
  38   0.0000       0.028478         0.7749
  39   0.0000       0.043076         1.1722
  40   0.0000       0.066867         1.8195

MULLIKEN ATOMIC CHARGES
-----------------------
   0 C :   -0.097154
   1 C :    0.029983
   2 C :   -0.067478
   3 C :   -0.067469
   4 S :    0.111136
   5 C :    0.029990
   6 C :   -0.097153
   7 S :    0.111131
   8 H :    0.034300
   9 H :   -0.010793
  10 H :   -0.010791
  11 H :    0.034300
Sum of atomic charges:   -0.0000000

LOEWDIN ATOMIC CHARGES
----------------------
   0 C :   -0.182056
   1 C :   -0.073207
   2 C :   -0.209620
   3 C :   -0.209623
   4 S :    0.405909
   5 C :   -0.073206
   6 C :   -0.182052
   7 S :    0.405901
   8 H :    0.026242
   9 H :    0.032734
  10 H :    0.032736
  11 H :    0.026242

  Mayer bond orders larger than 0.100000
B(  0-C ,  1-C ) :   1.5813 B(  0-C ,  4-S ) :   1.1408 B(  0-C ,  8-H ) :   0.9644
B(  1-C ,  2-C ) :   1.2498 B(  1-C ,  9-H ) :   0.9985 B(  2-C ,  3-C ) :   1.4322
B(  2-C ,  7-S ) :   1.0829 B(  3-C ,  4-S ) :   1.0829 B(  3-C ,  5-C ) :   1.2498
B(  5-C ,  6-C ) :   1.5813 B(  5-C , 10-H ) :   0.9985 B(  6-C ,  7-S ) :   1.1408
B(  6-C , 11-H ) :   0.9644

Dispersion correction           -0.029084893
FINAL SINGLE POINT ENERGY     -1027.053044947649

DIPOLE MOMENT
-------------
                                X             Y             Z
Electronic contribution:      0.00002      -0.00002       0.00070
Nuclear contribution   :     -0.00002       0.00004      -0.00073
                        -----------------------------------------
Total Dipole Moment    :     -0.00000       0.00001      -0.00004
                        -----------------------------------------
Magnitude (a.u.)       :      0.00004
Magnitude (Debye)      :      0.00010

Rotational constants in cm-1:     0.110881     0.043620     0.031305
Rotational constants in MHz :  3324.136262  1307.698645   938.498154

                             ****ORCA TERMINATED NORMALLY****
TOTAL RUN TIME: 0 days 0 hours 2 minutes 47 seconds 918 msec
