                         Program Version 4.2.0 -  RELEASE  -
|  1> # ORCA input file
|  2> # SCF done        -28.277714621681          0.000241796828
|  3> ! B3LYP/G D3BJ Opt RIJCOSX def2-SVP def2/J
|  4> * xyz 0 1
|  5>    C       -1.28941         0.04938        -0.00346
|  6>    C       -0.39628         1.07353        -0.00049
|  7>    O       -0.64318         2.40604         0.00321
|  8>    C       -1.99475         2.79366         0.00386
|  9>    C        0.96645         0.60827        -0.00165
| 10>    O        1.97670         1.51155         0.00099
| 11>    C        3.28312         0.99168        -0.00065
| 12>    C        1.04676        -0.74824        -0.00546
| 13>    S       -0.51017        -1.48831        -0.00770
| 14>    H       -2.35903         0.08492        -0.00348
| 15>    H       -1.99433         3.88210         0.00684
| 16>    H       -2.51441         2.42492         0.89461
| 17>    H       -2.51386         2.42979        -0.88921
| 18>    H        3.94843         1.85311         0.00187
| 19>    H        3.46996         0.38689        -0.89439
| 20>    H        3.47011         0.38157         0.88943
| 21>    H        1.91478        -1.37425        -0.00714
| 22> *
| 23>
| 24>                          ****END OF INPUT****
 Total Charge           Charge          ....    0
 Multiplicity           Mult            ....    1
 Number of Electrons    NEL             ....   76
Dispersion correction           -0.028670459
FINAL SINGLE POINT ENERGY      -781.680055515900
Dispersion correction            ... done
Dispersion correction           -0.028666696
FINAL SINGLE POINT ENERGY      -781.681627358552
Dispersion correction            ... done
Dispersion correction           -0.028680078
FINAL SINGLE POINT ENERGY      -781.681721738059
Dispersion correction            ... done
FINAL SINGLE POINT ENERGY      -781.681743851642
Dispersion correction            ... done
Dispersion correction           -0.028687585
FINAL SINGLE POINT ENERGY      -781.681750616354
Dispersion correction            ... done
Dispersion correction           -0.028686667
FINAL SINGLE POINT ENERGY      -781.681751963072
Dispersion correction            ... done
                    ***********************HURRAY********************

CARTESIAN COORDINATES (ANGSTROEM)
---------------------------------
  C     -1.304806    0.052391   -0.003745
  C     -0.395931    1.083495   -0.002253
  O     -0.639211    2.411516    0.000593
  C     -1.994632    2.794171    0.004309
  C      0.971686    0.612636   -0.003465
  O      1.979453    1.511006   -0.001866
  C      3.289639    0.994672   -0.000220
  C      1.050428   -0.759219   -0.005790
  S     -0.523394   -1.497925   -0.006867
  H     -2.389273    0.113338   -0.003322
  H     -2.023337    3.891746    0.008121
  H     -2.517611    2.411540    0.900838
  H     -2.520942    2.417715   -0.892902
  H      3.973253    1.853732    0.002751
  H      3.483320    0.378689   -0.898111
  H      3.479702    0.375448    0.896190
  H      1.942546   -1.378340   -0.007082

 Multiplicity           Mult            ....    1
 Number of Electrons    NEL             ....   76
 Basis Dimension        Dim             ....  170

ORBITAL ENERGIES
----------------

  NO   OCC          E(Eh)            E(eV)
   0   2.0000     -88.862867     -2418.0816
   1   2.0000     -19.163703      -521.4709
   2   2.0000     -19.163598      -521.4680
   3   2.0000     -10.244928      -278.7787
   4   2.0000     -10.244781      -278.7747
   5   2.0000     -10.244066      -278.7552
   6   2.0000     -10.243712      -278.7456
   7   2.0000     -10.199817      -277.5511
   8   2.0000     -10.199672      -277.5472
   9   2.0000      -7.957571      -216.5365
  10   2.0000      -5.926097      -161.2573
  11   2.0000      -5.922166      -161.1503
  12   2.0000      -5.918005      -161.0371
  13   2.0000      -1.067869       -29.0582
  14   2.0000      -1.052670       -28.6446
  15   2.0000      -0.865182       -23.5428
  16   2.0000      -0.752080       -20.4651
  17   2.0000      -0.721937       -19.6449
  18   2.0000      -0.691408       -18.8142
  19   2.0000      -0.671430       -18.2705
  20   2.0000      -0.573573       -15.6077
  21   2.0000      -0.551141       -14.9973
  22   2.0000      -0.542907       -14.7732
  23   2.0000      -0.482525       -13.1302
  24   2.0000      -0.477412       -12.9910
  25   2.0000      -0.471446       -12.8287
  26   2.0000      -0.464563       -12.6414
  27   2.0000      -0.448808       -12.2127
  28   2.0000      -0.395183       -10.7535
  29   2.0000      -0.391815       -10.6618
  30   2.0000      -0.389705       -10.6044
  31   2.0000      -0.371442       -10.1075
  32   2.0000      -0.339987        -9.2515
  33   2.0000      -0.328124        -8.9287
  34   2.0000      -0.326379        -8.8812
  35   2.0000      -0.320128        -8.7111
  36   2.0000      -0.222266        -6.0482
  37   2.0000      -0.207596        -5.6490
  38   0.0000       0.000728         0.0198
  39   0.0000       0.048281         1.3138
  40   0.0000       0.061091         1.6624
  41   0.0000       0.072551         1.9742
  42   0.0000       0.079571         2.1652

MULLIKEN ATOMIC CHARGES
-----------------------
   0 C :   -0.224800
   1 C :    0.211522
   2 O :   -0.297286
   3 C :    0.179987
   4 C :    0.211090
   5 O :   -0.298015
   6 C :    0.185796
   7 C :   -0.218469
   8 S :    0.080717
   9 H :    0.018871
  10 H :    0.036615
  11 H :    0.016632
  12 H :    0.016747
  13 H :    0.034263
  14 H :    0.015770
  15 H :    0.015747
  16 H :    0.014814
Sum of atomic charges:    0.0000000

LOEWDIN ATOMIC CHARGES
----------------------
   0 C :   -0.257063
   1 C :   -0.004518
   2 O :   -0.091695
   3 C :    0.080518
   4 C :   -0.003863
   5 O :   -0.091617
   6 C :    0.081618
   7 C :   -0.255696
   8 S :    0.399609
   9 H :    0.020984
  10 H :    0.026729
  11 H :    0.012080
  12 H :    0.012095
  13 H :    0.026598
  14 H :    0.011862
  15 H :    0.011867
  16 H :    0.020494

  Mayer bond orders larger than 0.100000
B(  0-C ,  1-C ) :   1.4978 B(  0-C ,  8-S ) :   1.1106 B(  0-C ,  9-H ) :   0.9747
B(  1-C ,  2-O ) :   1.1634 B(  1-C ,  4-C ) :   1.2228 B(  2-O ,  3-C ) :   0.9699
B(  3-C , 10-H ) :   0.9784 B(  3-C , 11-H ) :   0.9633 B(  3-C , 12-H ) :   0.9633
B(  4-C ,  5-O ) :   1.1661 B(  4-C ,  7-C ) :   1.4992 B(  5-O ,  6-C ) :   0.9702
B(  6-C , 13-H ) :   0.9785 B(  6-C , 14-H ) :   0.9637 B(  6-C , 15-H ) :   0.9637
B(  7-C ,  8-S ) :   1.1099 B(  7-C , 16-H ) :   0.9752

Dispersion correction           -0.028685892
FINAL SINGLE POINT ENERGY      -781.681751779446

DIPOLE MOMENT
-------------
                                X             Y             Z
Electronic contribution:     -1.79130      -5.19707      -0.02289
Nuclear contribution   :      1.81748       5.26042       0.02542
                        -----------------------------------------
Total Dipole Moment    :      0.02618       0.06335       0.00254
                        -----------------------------------------
Magnitude (a.u.)       :      0.06859
Magnitude (Debye)      :      0.17435

Rotational constants in cm-1:     0.053281     0.045212     0.024690
Rotational constants in MHz :  1597.326817  1355.421870   740.201226

                             ****ORCA TERMINATED NORMALLY****
TOTAL RUN TIME: 0 days 0 hours 4 minutes 39 seconds 780 msec
