                         Program Version 4.2.0 -  RELEASE  -
|  1> # ORCA input file
|  2> # SCF done        -43.523873966988          0.000170963043
|  3> ! B3LYP/G D3BJ Opt RIJCOSX def2-SVP def2/J
|  4> * xyz 0 1
|  5>    C       -0.42615         2.41165        -0.00148
|  6>    C       -0.92917         1.09387        -0.00109
|  7>    C       -0.00860         0.01576        -0.00007
|  8>    C        1.37614         0.27978         0.00059
|  9>    C        1.82997         1.58228         0.00010
| 10>    C        0.92412         2.64727        -0.00096
| 11>    C        2.34462        -0.83057         0.00196
| 12>    O        3.54586        -0.65329         0.00257
| 13>    N        1.80952        -2.10896         0.00283
| 14>    C        2.72939        -3.23434         0.00480
| 15>    C        0.46240        -2.43478         0.00144
| 16>    O        0.11552        -3.59802         0.00148
| 17>    C       -0.48740        -1.30998         0.00025
| 18>    C       -1.84455        -1.55515        -0.00043
| 19>    C       -2.75421        -0.49336        -0.00135
| 20>    C       -2.30949         0.80322        -0.00165
| 21>    H       -1.12675         3.23426        -0.00220
| 22>    H        2.89477         1.76035         0.00054
| 23>    H        1.29870         3.65980        -0.00133
| 24>    H        3.74317        -2.84230         0.00767
| 25>    H        2.56027        -3.84661        -0.88082
| 26>    H        2.55533        -3.84726         0.88900
| 27>    H       -2.18685        -2.57903        -0.00024
| 28>    H       -3.81303        -0.70418        -0.00184
| 29>    H       -3.01211         1.62411        -0.00232
| 30> *
| 31>
| 32>                          ****END OF INPUT****
 Total Charge           Charge          ....    0
 Multiplicity           Mult            ....    1
 Number of Electrons    NEL             ....  110
Dispersion correction           -0.058764682
FINAL SINGLE POINT ENERGY      -705.609824750720
Dispersion correction            ... done
Dispersion correction           -0.058395798
FINAL SINGLE POINT ENERGY      -705.612576537751
Dispersion correction            ... done
Dispersion correction           -0.058351460
FINAL SINGLE POINT ENERGY      -705.612636584698
Dispersion correction            ... done
Dispersion correction           -0.058347076
FINAL SINGLE POINT ENERGY      -705.612644138655
Dispersion correction            ... done
                    ***********************HURRAY********************

CARTESIAN COORDINATES (ANGSTROEM)
---------------------------------
  C     -0.433859    2.436974   -0.001498
  C     -0.942019    1.110062   -0.001131
  C     -0.013001    0.023694    0.000019
  C      1.380917    0.288763    0.000717
  C      1.840013    1.595986    0.000267
  C      0.927826    2.673207   -0.000815
  C      2.362018   -0.828422    0.001840
  O      3.564310   -0.636691    0.002759
  N      1.827717   -2.127367    0.002813
  C      2.747725   -3.263379    0.004530
  C      0.462603   -2.447800    0.001795
  O      0.105602   -3.611854    0.002571
  C     -0.492118   -1.311088    0.000440
  C     -1.853879   -1.563670   -0.000374
  C     -2.776884   -0.495701   -0.001529
  C     -2.332036    0.812982   -0.001881
  H     -1.139532    3.271581   -0.002391
  H      2.917977    1.767113    0.000765
  H      1.307646    3.697308   -0.001154
  H      3.767444   -2.866979    0.006979
  H      2.575020   -3.887502   -0.884000
  H      2.570692   -3.888040    0.891798
  H     -2.188141   -2.602592   -0.000079
  H     -3.847766   -0.711926   -0.002183
  H     -3.046804    1.639864   -0.002807

 Multiplicity           Mult            ....    1
 Number of Electrons    NEL             ....  110
 Basis Dimension        Dim             ....  269

ORBITAL ENERGIES
----------------

  NO   OCC          E(Eh)            E(eV)
   0   2.0000     -19.120705      -520.3008
   1   2.0000     -19.119478      -520.2674
   2   2.0000     -14.381690      -391.3457
   3   2.0000     -10.307245      -280.4744
   4   2.0000     -10.304508      -280.3999
   5   2.0000     -10.223426      -278.1936
   6   2.0000     -10.222235      -278.1612
   7   2.0000     -10.220223      -278.1064
   8   2.0000     -10.220094      -278.1029
   9   2.0000     -10.218554      -278.0610
  10   2.0000     -10.216817      -278.0137
  11   2.0000     -10.216543      -278.0063
  12   2.0000     -10.216354      -278.0011
  13   2.0000     -10.215713      -277.9837
  14   2.0000     -10.214606      -277.9536
  15   2.0000     -10.214459      -277.9496
  16   2.0000      -1.056460       -28.7477
  17   2.0000      -1.036905       -28.2156
  18   2.0000      -0.935226       -25.4488
  19   2.0000      -0.895454       -24.3665
  20   2.0000      -0.841113       -22.8878
  21   2.0000      -0.807100       -21.9623
  22   2.0000      -0.759450       -20.6657
  23   2.0000      -0.749516       -20.3954
  24   2.0000      -0.715934       -19.4816
  25   2.0000      -0.673471       -18.3261
  26   2.0000      -0.636451       -17.3187
  27   2.0000      -0.633184       -17.2298
  28   2.0000      -0.627178       -17.0664
  29   2.0000      -0.567275       -15.4363
  30   2.0000      -0.528690       -14.3864
  31   2.0000      -0.528670       -14.3858
  32   2.0000      -0.514901       -14.0112
  33   2.0000      -0.485376       -13.2078
  34   2.0000      -0.479489       -13.0476
  35   2.0000      -0.478668       -13.0252
  36   2.0000      -0.456872       -12.4321
  37   2.0000      -0.447716       -12.1830
  38   2.0000      -0.436303       -11.8724
  39   2.0000      -0.430385       -11.7114
  40   2.0000      -0.424677       -11.5561
  41   2.0000      -0.417638       -11.3645
  42   2.0000      -0.406792       -11.0694
  43   2.0000      -0.404425       -11.0050
  44   2.0000      -0.393368       -10.7041
  45   2.0000      -0.390053       -10.6139
  46   2.0000      -0.371111       -10.0985
  47   2.0000      -0.361642        -9.8408
  48   2.0000      -0.347741        -9.4625
  49   2.0000      -0.310139        -8.4393
  50   2.0000      -0.287905        -7.8343
  51   2.0000      -0.279054        -7.5934
  52   2.0000      -0.270708        -7.3663
  53   2.0000      -0.269142        -7.3237
  54   2.0000      -0.246136        -6.6977
  55   0.0000      -0.096433        -2.6241
  56   0.0000      -0.038317        -1.0427
  57   0.0000      -0.033037        -0.8990
  58   0.0000       0.002815         0.0766
  59   0.0000       0.052265         1.4222

MULLIKEN ATOMIC CHARGES
-----------------------
   0 C :   -0.005625
   1 C :    0.062679
   2 C :    0.154873
   3 C :   -0.058982
   4 C :   -0.015720
   5 C :    0.041688
   6 C :    0.176271
   7 O :   -0.205986
   8 N :   -0.293092
   9 C :    0.142453
  10 C :    0.168747
  11 O :   -0.213767
  12 C :   -0.058138
  13 C :   -0.005948
  14 C :    0.033796
  15 C :   -0.004443
  16 H :   -0.016565
  17 H :    0.005469
  18 H :   -0.007945
  19 H :    0.049379
  20 H :    0.035082
  21 H :    0.035103
  22 H :    0.001118
  23 H :   -0.003320
  24 H :   -0.017127
Sum of atomic charges:   -0.0000000

LOEWDIN ATOMIC CHARGES
----------------------
   0 C :    0.006911
   1 C :   -0.018507
   2 C :    0.001694
   3 C :   -0.062949
   4 C :    0.028269
   5 C :   -0.022297
   6 C :    0.090066
   7 O :   -0.182432
   8 N :   -0.035153
   9 C :    0.040262
  10 C :    0.087985
  11 O :   -0.182858
  12 C :   -0.063456
  13 C :    0.029022
  14 C :   -0.023470
  15 C :    0.006219
  16 H :    0.031760
  17 H :    0.039833
  18 H :    0.032756
  19 H :    0.030967
  20 H :    0.030396
  21 H :    0.030414
  22 H :    0.039151
  23 H :    0.033659
  24 H :    0.031758

  Mayer bond orders larger than 0.100000
B(  0-C ,  1-C ) :   1.2329 B(  0-C ,  5-C ) :   1.4516 B(  0-C , 16-H ) :   0.9899
B(  1-C ,  2-C ) :   1.2404 B(  1-C , 15-C ) :   1.2397 B(  2-C ,  3-C ) :   1.2346
B(  2-C , 12-C ) :   1.2277 B(  3-C ,  4-C ) :   1.4776 B(  3-C ,  6-C ) :   0.9352
B(  4-C ,  5-C ) :   1.2359 B(  4-C , 17-H ) :   0.9851 B(  5-C , 18-H ) :   0.9880
B(  6-C ,  7-O ) :   2.1190 B(  6-C ,  8-N ) :   1.0649 B(  8-N ,  9-C ) :   0.9390
B(  8-N , 10-C ) :   1.0712 B(  9-C , 19-H ) :   0.9540 B(  9-C , 20-H ) :   0.9726
B(  9-C , 21-H ) :   0.9725 B( 10-C , 11-O ) :   2.1139 B( 10-C , 12-C ) :   0.9382
B( 12-C , 13-C ) :   1.4805 B( 13-C , 14-C ) :   1.2335 B( 13-C , 22-H ) :   0.9857
B( 14-C , 15-C ) :   1.4520 B( 14-C , 23-H ) :   0.9870 B( 15-C , 24-H ) :   0.9881

Dispersion correction           -0.058349398
FINAL SINGLE POINT ENERGY      -705.612645472004

DIPOLE MOMENT
-------------
                                X             Y             Z
Electronic contribution:      0.13831       0.04749      -0.00164
Nuclear contribution   :     -1.12498       1.10213       0.00016
                        -----------------------------------------
Total Dipole Moment    :     -0.98668       1.14962      -0.00148
                        -----------------------------------------
Magnitude (a.u.)       :      1.51498
Magnitude (Debye)      :      3.85077

Rotational constants in cm-1:     0.027417     0.019198     0.011315
Rotational constants in MHz :   821.940497   575.535760   339.229733

                             ****ORCA TERMINATED NORMALLY****
TOTAL RUN TIME: 0 days 0 hours 9 minutes 42 seconds 345 msec
