                         Program Version 4.2.0 -  RELEASE  -
|  1> # ORCA input file
|  2> # SCF done       -205.033610966002          0.000304516757
|  3> ! CAM-B3LYP def2-SVP def2/J RIJCOSX Grid4 TightSCF
|  4> %maxcore 5000
|  5> %tddft
|  6>     Mode sTDDFT
|  7>     Ethresh 5.0
|  8>     maxcore 5000
|  9> end
| 10>
| 11> %pal
| 12>   nprocs 6
| 13>   end
| 14> * xyz 0 1
| 15>    C        7.13897         8.77792        -2.91449
| 16>    C        6.19008         9.41289        -3.67376
| 17>    C        6.47250        10.11397        -4.86444
| 18>    N        6.63754        10.69486        -5.84019
| 19>    C        4.81620         9.37869        -3.38811
| 20>    N        3.67757         9.34952        -3.23020
| 21>    C        8.53703         8.60019        -3.27169
| 22>    C        9.06354         7.50532        -2.52338
| 23>    C       10.36005         7.10194        -2.66392
| 24>    C       11.20213         7.79194        -3.56534
| 25>    C       10.68448         8.89648        -4.30339
| 26>    C        9.33617         9.28883        -4.14372
| 27>    C       11.54081         9.58274        -5.18842
| 28>    C       12.84502         9.19789        -5.34070
| 29>    C       13.35306         8.10969        -4.61547
| 30>    C       12.54898         7.42136        -3.74778
| 31>    C        8.02026         6.98167        -1.62627
| 32>    O        8.06106         6.01814        -0.89786
| 33>    C        6.88808         7.94886        -1.75273
| 34>    C        5.95877         8.01107        -0.76898
| 35>    C        5.03850         9.05087        -0.44857
| 36>    C        5.15542        10.43591        -0.61306
| 37>    N        6.26989        11.19489        -0.99700
| 38>    O        6.11262        12.39967        -1.11565
| 39>    O        7.34079        10.63407        -1.19541
| 40>    C        3.94420        11.07174        -0.18410
| 41>    C        3.06066        10.10915         0.17523
| 42>    C        3.69784         8.81926         0.05265
| 43>    C        3.07866         7.61528         0.38334
| 44>    C        3.60934         6.45688         0.98488
| 45>    C        2.57103         5.65451         1.41070
| 46>    C        1.34015         6.23329         1.02454
| 47>    N        0.09155         5.64616         1.25638
| 48>    O       -0.91054         6.23476         0.86727
| 49>    O        0.06726         4.58050         1.84774
| 50>    C        1.60884         7.42751         0.32541
| 51>    C        0.72739         8.17354        -0.44268
| 52>    C        1.12038         9.02543        -1.46602
| 53>    C        0.33924         9.94677        -2.14842
| 54>    S        0.98038        10.61265        -3.62371
| 55>    C       -0.39849        11.61529        -3.88863
| 56>    C       -1.37016        11.42323        -2.87366
| 57>    C       -0.93761        10.51143        -1.86566
| 58>    C       -1.74042        10.28704        -0.74405
| 59>    C       -2.98551        10.88805        -0.67441
| 60>    C       -3.80902        10.68566         0.45899
| 61>    N       -4.48451        10.54699         1.37361
| 62>    C       -3.46072        11.69892        -1.72471
| 63>    C       -2.66466        11.96626        -2.80619
| 64>    C       -0.39056        12.47642        -5.00804
| 65>    C       -1.11937        13.61700        -5.15521
| 66>    C       -1.10307        14.43679        -6.30952
| 67>    S       -1.94607        15.96271        -6.28909
| 68>    C       -1.53218        16.29445        -7.94058
| 69>    C       -0.75629        15.25147        -8.46313
| 70>    C       -0.51843        14.22162        -7.54529
| 71>    C       -0.19479        15.22283        -9.75469
| 72>    N        0.31507        15.14604       -10.77840
| 73>    C       -1.98664        17.49258        -8.54018
| 74>    C       -1.97259        17.77132        -9.87126
| 75>    C       -2.44679        19.01396       -10.35728
| 76>    C       -2.62277        19.31939       -11.67463
| 77>    C       -3.04611        20.59436       -12.22832
| 78>    C       -3.32035        21.74296       -11.53123
| 79>    C       -3.71934        22.95703       -12.13057
| 80>    N       -4.04887        23.97347       -12.54982
| 81>    C       -3.25020        21.89340       -10.13049
| 82>    N       -3.21824        22.09660        -9.00044
| 83>    C       -3.11798        20.44723       -13.67720
| 84>    C       -2.75051        19.11477       -14.02222
| 85>    C       -2.44024        18.35672       -12.79991
| 86>    O       -2.13796        17.18619       -12.72551
| 87>    C       -2.73186        18.68217       -15.31705
| 88>    C       -3.08714        19.57955       -16.34840
| 89>    C       -3.45594        20.91475       -16.01279
| 90>    C       -3.46514        21.33401       -14.66308
| 91>    C       -3.81207        21.80180       -17.04927
| 92>    C       -3.80594        21.39115       -18.35450
| 93>    C       -3.44316        20.07634       -18.68360
| 94>    C       -3.09077        19.18991       -17.70211
| 95>    H       10.74270         6.27011        -2.09128
| 96>    H        8.97081        10.13955        -4.69768
| 97>    H       11.14447        10.41879        -5.74553
| 98>    H       13.49304         9.73032        -6.02065
| 99>    H       14.38508         7.82050        -4.74645
|100>    H       12.93565         6.58363        -3.18605
|101>    H        5.96233         7.15695        -0.10207
|102>    H        3.81416        12.13596        -0.15271
|103>    H        2.08835        10.26405         0.60017
|104>    H        4.64355         6.27539         1.20192
|105>    H        2.65497         4.73151         1.95395
|106>    H       -0.32471         7.96960        -0.28925
|107>    H        2.13011         8.92123        -1.84796
|108>    H       -1.40709         9.66393         0.06912
|109>    H       -4.45672        12.10968        -1.65975
|110>    H       -3.04473        12.56829        -3.61442
|111>    H        0.32496        12.21877        -5.77773
|112>    H       -1.72623        13.97714        -4.33768
|113>    H        0.05813        13.34767        -7.78972
|114>    H       -2.41533        18.21991        -7.85989
|115>    H       -1.61915        17.04419       -10.58700
|116>    H       -2.67940        19.76181        -9.60970
|117>    H       -2.44969        17.66610       -15.54960
|118>    H       -3.75088        22.35043       -14.44414
|119>    H       -4.09058        22.81292       -16.79098
|120>    H       -4.08095        22.07758       -19.14114
|121>    H       -3.44447        19.76949       -19.71874
|122>    H       -2.81048        18.17653       -17.94930
|123> *
|124>
|125>                          ****END OF INPUT****

CARTESIAN COORDINATES (ANGSTROEM)
---------------------------------
  C      7.138970    8.777920   -2.914490
  C      6.190080    9.412890   -3.673760
  C      6.472500   10.113970   -4.864440
  N      6.637540   10.694860   -5.840190
  C      4.816200    9.378690   -3.388110
  N      3.677570    9.349520   -3.230200
  C      8.537030    8.600190   -3.271690
  C      9.063540    7.505320   -2.523380
  C     10.360050    7.101940   -2.663920
  C     11.202130    7.791940   -3.565340
  C     10.684480    8.896480   -4.303390
  C      9.336170    9.288830   -4.143720
  C     11.540810    9.582740   -5.188420
  C     12.845020    9.197890   -5.340700
  C     13.353060    8.109690   -4.615470
  C     12.548980    7.421360   -3.747780
  C      8.020260    6.981670   -1.626270
  O      8.061060    6.018140   -0.897860
  C      6.888080    7.948860   -1.752730
  C      5.958770    8.011070   -0.768980
  C      5.038500    9.050870   -0.448570
  C      5.155420   10.435910   -0.613060
  N      6.269890   11.194890   -0.997000
  O      6.112620   12.399670   -1.115650
  O      7.340790   10.634070   -1.195410
  C      3.944200   11.071740   -0.184100
  C      3.060660   10.109150    0.175230
  C      3.697840    8.819260    0.052650
  C      3.078660    7.615280    0.383340
  C      3.609340    6.456880    0.984880
  C      2.571030    5.654510    1.410700
  C      1.340150    6.233290    1.024540
  N      0.091550    5.646160    1.256380
  O     -0.910540    6.234760    0.867270
  O      0.067260    4.580500    1.847740
  C      1.608840    7.427510    0.325410
  C      0.727390    8.173540   -0.442680
  C      1.120380    9.025430   -1.466020
  C      0.339240    9.946770   -2.148420
  S      0.980380   10.612650   -3.623710
  C     -0.398490   11.615290   -3.888630
  C     -1.370160   11.423230   -2.873660
  C     -0.937610   10.511430   -1.865660
  C     -1.740420   10.287040   -0.744050
  C     -2.985510   10.888050   -0.674410
  C     -3.809020   10.685660    0.458990
  N     -4.484510   10.546990    1.373610
  C     -3.460720   11.698920   -1.724710
  C     -2.664660   11.966260   -2.806190
  C     -0.390560   12.476420   -5.008040
  C     -1.119370   13.617000   -5.155210
  C     -1.103070   14.436790   -6.309520
  S     -1.946070   15.962710   -6.289090
  C     -1.532180   16.294450   -7.940580
  C     -0.756290   15.251470   -8.463130
  C     -0.518430   14.221620   -7.545290
  C     -0.194790   15.222830   -9.754690
  N      0.315070   15.146040  -10.778400
  C     -1.986640   17.492580   -8.540180
  C     -1.972590   17.771320   -9.871260
  C     -2.446790   19.013960  -10.357280
  C     -2.622770   19.319390  -11.674630
  C     -3.046110   20.594360  -12.228320
  C     -3.320350   21.742960  -11.531230
  C     -3.719340   22.957030  -12.130570
  N     -4.048870   23.973470  -12.549820
  C     -3.250200   21.893400  -10.130490
  N     -3.218240   22.096600   -9.000440
  C     -3.117980   20.447230  -13.677200
  C     -2.750510   19.114770  -14.022220
  C     -2.440240   18.356720  -12.799910
  O     -2.137960   17.186190  -12.725510
  C     -2.731860   18.682170  -15.317050
  C     -3.087140   19.579550  -16.348400
  C     -3.455940   20.914750  -16.012790
  C     -3.465140   21.334010  -14.663080
  C     -3.812070   21.801800  -17.049270
  C     -3.805940   21.391150  -18.354500
  C     -3.443160   20.076340  -18.683600
  C     -3.090770   19.189910  -17.702110
  H     10.742700    6.270110   -2.091280
  H      8.970810   10.139550   -4.697680
  H     11.144470   10.418790   -5.745530
  H     13.493040    9.730320   -6.020650
  H     14.385080    7.820500   -4.746450
  H     12.935650    6.583630   -3.186050
  H      5.962330    7.156950   -0.102070
  H      3.814160   12.135960   -0.152710
  H      2.088350   10.264050    0.600170
  H      4.643550    6.275390    1.201920
  H      2.654970    4.731510    1.953950
  H     -0.324710    7.969600   -0.289250
  H      2.130110    8.921230   -1.847960
  H     -1.407090    9.663930    0.069120
  H     -4.456720   12.109680   -1.659750
  H     -3.044730   12.568290   -3.614420
  H      0.324960   12.218770   -5.777730
  H     -1.726230   13.977140   -4.337680
  H      0.058130   13.347670   -7.789720
  H     -2.415330   18.219910   -7.859890
  H     -1.619150   17.044190  -10.587000
  H     -2.679400   19.761810   -9.609700
  H     -2.449690   17.666100  -15.549600
  H     -3.750880   22.350430  -14.444140
  H     -4.090580   22.812920  -16.790980
  H     -4.080950   22.077580  -19.141140
  H     -3.444470   19.769490  -19.718740
  H     -2.810480   18.176530  -17.949300

 Total Charge           Charge          ....    0
 Multiplicity           Mult            ....    1
 Number of Electrons    NEL             ....  548
 Basis Dimension        Dim             .... 1268

ORBITAL ENERGIES
----------------

  NO   OCC          E(Eh)            E(eV)
   0   2.0000     -89.002854     -2421.8908
   1   2.0000     -89.000330     -2421.8221
   2   2.0000     -19.240677      -523.5654
   3   2.0000     -19.239764      -523.5406
   4   2.0000     -19.221936      -523.0555
   5   2.0000     -19.221831      -523.0526
   6   2.0000     -19.221702      -523.0491
   7   2.0000     -19.215773      -522.8878
   8   2.0000     -14.647417      -398.5765
   9   2.0000     -14.632756      -398.1775
  10   2.0000     -14.431408      -392.6986
  11   2.0000     -14.423729      -392.4896
  12   2.0000     -14.422857      -392.4659
  13   2.0000     -14.420225      -392.3943
  14   2.0000     -14.418834      -392.3564
  15   2.0000     -14.417670      -392.3248
  16   2.0000     -10.372143      -282.2404
  17   2.0000     -10.366689      -282.0920
  18   2.0000     -10.356453      -281.8134
  19   2.0000     -10.353007      -281.7196
  20   2.0000     -10.349191      -281.6158
  21   2.0000     -10.347280      -281.5638
  22   2.0000     -10.346875      -281.5528
  23   2.0000     -10.346167      -281.5335
  24   2.0000     -10.344344      -281.4839
  25   2.0000     -10.342274      -281.4276
  26   2.0000     -10.340867      -281.3893
  27   2.0000     -10.339621      -281.3554
  28   2.0000     -10.338344      -281.3206
  29   2.0000     -10.333302      -281.1834
  30   2.0000     -10.330685      -281.1122
  31   2.0000     -10.328906      -281.0638
  32   2.0000     -10.327347      -281.0214
  33   2.0000     -10.326898      -281.0092
  34   2.0000     -10.326396      -280.9955
  35   2.0000     -10.326220      -280.9907
  36   2.0000     -10.324897      -280.9547
  37   2.0000     -10.324462      -280.9429
  38   2.0000     -10.322962      -280.9021
  39   2.0000     -10.322857      -280.8992
  40   2.0000     -10.322290      -280.8838
  41   2.0000     -10.322229      -280.8821
  42   2.0000     -10.322227      -280.8821
  43   2.0000     -10.322057      -280.8774
  44   2.0000     -10.320840      -280.8443
  45   2.0000     -10.318647      -280.7847
  46   2.0000     -10.316762      -280.7334
  47   2.0000     -10.316450      -280.7249
  48   2.0000     -10.316296      -280.7207
  49   2.0000     -10.315510      -280.6993
  50   2.0000     -10.309879      -280.5461
  51   2.0000     -10.309734      -280.5421
  52   2.0000     -10.308649      -280.5126
  53   2.0000     -10.307777      -280.4889
  54   2.0000     -10.307532      -280.4822
  55   2.0000     -10.306333      -280.4496
  56   2.0000     -10.304108      -280.3890
  57   2.0000     -10.303387      -280.3694
  58   2.0000     -10.301704      -280.3236
  59   2.0000     -10.301482      -280.3176
  60   2.0000     -10.301118      -280.3077
  61   2.0000     -10.300459      -280.2897
  62   2.0000     -10.299510      -280.2639
  63   2.0000     -10.298386      -280.2333
  64   2.0000     -10.298158      -280.2271
  65   2.0000     -10.297841      -280.2185
  66   2.0000     -10.297154      -280.1998
  67   2.0000     -10.292556      -280.0747
  68   2.0000     -10.290348      -280.0146
  69   2.0000     -10.290146      -280.0091
  70   2.0000     -10.289574      -279.9935
  71   2.0000     -10.289389      -279.9885
  72   2.0000     -10.288926      -279.9759
  73   2.0000     -10.286870      -279.9200
  74   2.0000     -10.286239      -279.9028
  75   2.0000     -10.286055      -279.8978
  76   2.0000     -10.285567      -279.8845
  77   2.0000     -10.285536      -279.8837
  78   2.0000     -10.280697      -279.7520
  79   2.0000     -10.280324      -279.7418
  80   2.0000      -8.097536      -220.3452
  81   2.0000      -8.096105      -220.3062
  82   2.0000      -6.066379      -165.0746
  83   2.0000      -6.065197      -165.0424
  84   2.0000      -6.062042      -164.9566
  85   2.0000      -6.061165      -164.9327
  86   2.0000      -6.060661      -164.9190
  87   2.0000      -6.058426      -164.8582
  88   2.0000      -1.317299       -35.8455
  89   2.0000      -1.300596       -35.3910
  90   2.0000      -1.136806       -30.9341
  91   2.0000      -1.133826       -30.8530
  92   2.0000      -1.130842       -30.7718
  93   2.0000      -1.117900       -30.4196
  94   2.0000      -1.038501       -28.2591
  95   2.0000      -1.034888       -28.1607
  96   2.0000      -1.027408       -27.9572
  97   2.0000      -1.024297       -27.8725
  98   2.0000      -1.013256       -27.5721
  99   2.0000      -1.006427       -27.3863
 100   2.0000      -1.005570       -27.3630
 101   2.0000      -1.003964       -27.3193
 102   2.0000      -1.002784       -27.2871
 103   2.0000      -0.999823       -27.2066
 104   2.0000      -0.998440       -27.1689
 105   2.0000      -0.992177       -26.9985
 106   2.0000      -0.976432       -26.5701
 107   2.0000      -0.973761       -26.4974
 108   2.0000      -0.972300       -26.4576
 109   2.0000      -0.955720       -26.0065
 110   2.0000      -0.941871       -25.6296
 111   2.0000      -0.928299       -25.2603
 112   2.0000      -0.926248       -25.2045
 113   2.0000      -0.920317       -25.0431
 114   2.0000      -0.906998       -24.6807
 115   2.0000      -0.905425       -24.6379
 116   2.0000      -0.900048       -24.4915
 117   2.0000      -0.894213       -24.3328
 118   2.0000      -0.889818       -24.2132
 119   2.0000      -0.885438       -24.0940
 120   2.0000      -0.882607       -24.0170
 121   2.0000      -0.882387       -24.0110
 122   2.0000      -0.877656       -23.8822
 123   2.0000      -0.873886       -23.7796
 124   2.0000      -0.872750       -23.7487
 125   2.0000      -0.854271       -23.2459
 126   2.0000      -0.834863       -22.7178
 127   2.0000      -0.832308       -22.6482
 128   2.0000      -0.829423       -22.5698
 129   2.0000      -0.826813       -22.4987
 130   2.0000      -0.809937       -22.0395
 131   2.0000      -0.798534       -21.7292
 132   2.0000      -0.786086       -21.3905
 133   2.0000      -0.774576       -21.0773
 134   2.0000      -0.771889       -21.0042
 135   2.0000      -0.766899       -20.8684
 136   2.0000      -0.760542       -20.6954
 137   2.0000      -0.755918       -20.5696
 138   2.0000      -0.746688       -20.3184
 139   2.0000      -0.737547       -20.0697
 140   2.0000      -0.727531       -19.7971
 141   2.0000      -0.715776       -19.4772
 142   2.0000      -0.711757       -19.3679
 143   2.0000      -0.707222       -19.2445
 144   2.0000      -0.703483       -19.1427
 145   2.0000      -0.698760       -19.0142
 146   2.0000      -0.695979       -18.9386
 147   2.0000      -0.694583       -18.9006
 148   2.0000      -0.694175       -18.8895
 149   2.0000      -0.686479       -18.6800
 150   2.0000      -0.681799       -18.5527
 151   2.0000      -0.675879       -18.3916
 152   2.0000      -0.668893       -18.2015
 153   2.0000      -0.662706       -18.0332
 154   2.0000      -0.653241       -17.7756
 155   2.0000      -0.648487       -17.6462
 156   2.0000      -0.644676       -17.5425
 157   2.0000      -0.638849       -17.3840
 158   2.0000      -0.636015       -17.3069
 159   2.0000      -0.633184       -17.2298
 160   2.0000      -0.631507       -17.1842
 161   2.0000      -0.628351       -17.0983
 162   2.0000      -0.625499       -17.0207
 163   2.0000      -0.615182       -16.7400
 164   2.0000      -0.613871       -16.7043
 165   2.0000      -0.612908       -16.6781
 166   2.0000      -0.611039       -16.6272
 167   2.0000      -0.608642       -16.5620
 168   2.0000      -0.608111       -16.5476
 169   2.0000      -0.600602       -16.3432
 170   2.0000      -0.597812       -16.2673
 171   2.0000      -0.595572       -16.2063
 172   2.0000      -0.587774       -15.9941
 173   2.0000      -0.578033       -15.7291
 174   2.0000      -0.573582       -15.6080
 175   2.0000      -0.572187       -15.5700
 176   2.0000      -0.567884       -15.4529
 177   2.0000      -0.565493       -15.3879
 178   2.0000      -0.557378       -15.1670
 179   2.0000      -0.554606       -15.0916
 180   2.0000      -0.550584       -14.9821
 181   2.0000      -0.550131       -14.9698
 182   2.0000      -0.547778       -14.9058
 183   2.0000      -0.546745       -14.8777
 184   2.0000      -0.544700       -14.8221
 185   2.0000      -0.543693       -14.7946
 186   2.0000      -0.542469       -14.7613
 187   2.0000      -0.538915       -14.6646
 188   2.0000      -0.538267       -14.6470
 189   2.0000      -0.534688       -14.5496
 190   2.0000      -0.533231       -14.5099
 191   2.0000      -0.528949       -14.3934
 192   2.0000      -0.527802       -14.3622
 193   2.0000      -0.523822       -14.2539
 194   2.0000      -0.523502       -14.2452
 195   2.0000      -0.521426       -14.1887
 196   2.0000      -0.518710       -14.1148
 197   2.0000      -0.517570       -14.0838
 198   2.0000      -0.514519       -14.0008
 199   2.0000      -0.512311       -13.9407
 200   2.0000      -0.511451       -13.9173
 201   2.0000      -0.506823       -13.7914
 202   2.0000      -0.504858       -13.7379
 203   2.0000      -0.502982       -13.6868
 204   2.0000      -0.502540       -13.6748
 205   2.0000      -0.502252       -13.6670
 206   2.0000      -0.496710       -13.5162
 207   2.0000      -0.493389       -13.4258
 208   2.0000      -0.492632       -13.4052
 209   2.0000      -0.491333       -13.3699
 210   2.0000      -0.490969       -13.3600
 211   2.0000      -0.486350       -13.2343
 212   2.0000      -0.484246       -13.1770
 213   2.0000      -0.483216       -13.1490
 214   2.0000      -0.480698       -13.0805
 215   2.0000      -0.479463       -13.0469
 216   2.0000      -0.472944       -12.8695
 217   2.0000      -0.471568       -12.8320
 218   2.0000      -0.469014       -12.7625
 219   2.0000      -0.465129       -12.6568
 220   2.0000      -0.464984       -12.6529
 221   2.0000      -0.461568       -12.5599
 222   2.0000      -0.460245       -12.5239
 223   2.0000      -0.455619       -12.3980
 224   2.0000      -0.450291       -12.2530
 225   2.0000      -0.449771       -12.2389
 226   2.0000      -0.449540       -12.2326
 227   2.0000      -0.448018       -12.1912
 228   2.0000      -0.447126       -12.1669
 229   2.0000      -0.444968       -12.1082
 230   2.0000      -0.444051       -12.0832
 231   2.0000      -0.439836       -11.9685
 232   2.0000      -0.438830       -11.9412
 233   2.0000      -0.438483       -11.9317
 234   2.0000      -0.438361       -11.9284
 235   2.0000      -0.437389       -11.9019
 236   2.0000      -0.433416       -11.7938
 237   2.0000      -0.432469       -11.7681
 238   2.0000      -0.431566       -11.7435
 239   2.0000      -0.429533       -11.6882
 240   2.0000      -0.428074       -11.6485
 241   2.0000      -0.425775       -11.5859
 242   2.0000      -0.425053       -11.5663
 243   2.0000      -0.421043       -11.4572
 244   2.0000      -0.420192       -11.4340
 245   2.0000      -0.415339       -11.3019
 246   2.0000      -0.411563       -11.1992
 247   2.0000      -0.408875       -11.1261
 248   2.0000      -0.404357       -11.0031
 249   2.0000      -0.389220       -10.5912
 250   2.0000      -0.387658       -10.5487
 251   2.0000      -0.381092       -10.3701
 252   2.0000      -0.379419       -10.3245
 253   2.0000      -0.376297       -10.2396
 254   2.0000      -0.375309       -10.2127
 255   2.0000      -0.370381       -10.0786
 256   2.0000      -0.362998        -9.8777
 257   2.0000      -0.361864        -9.8468
 258   2.0000      -0.358889        -9.7659
 259   2.0000      -0.353524        -9.6199
 260   2.0000      -0.350841        -9.5469
 261   2.0000      -0.350449        -9.5362
 262   2.0000      -0.346807        -9.4371
 263   2.0000      -0.340535        -9.2664
 264   2.0000      -0.335313        -9.1243
 265   2.0000      -0.332421        -9.0456
 266   2.0000      -0.322511        -8.7760
 267   2.0000      -0.316917        -8.6238
 268   2.0000      -0.316701        -8.6179
 269   2.0000      -0.300522        -8.1776
 270   2.0000      -0.296991        -8.0815
 271   2.0000      -0.292768        -7.9666
 272   2.0000      -0.283925        -7.7260
 273   2.0000      -0.251919        -6.8551
 274   0.0000      -0.146242        -3.9794
 275   0.0000      -0.115360        -3.1391
 276   0.0000      -0.099012        -2.6942
 277   0.0000      -0.081181        -2.2091
 278   0.0000      -0.066026        -1.7967

MULLIKEN ATOMIC CHARGES
-----------------------
   0 C :    0.313223
   1 C :   -0.354595
   2 C :   -0.184140
   3 N :    0.160441
   4 C :   -0.148739
   5 N :    0.133445
   6 C :    0.028972
   7 C :    0.026043
   8 C :   -0.085147
   9 C :    0.096896
  10 C :    0.091149
  11 C :   -0.069544
  12 C :   -0.014174
  13 C :    0.034987
  14 C :    0.037141
  15 C :   -0.016316
  16 C :    0.133940
  17 O :   -0.142224
  18 C :   -0.096429
  19 C :    0.005546
  20 C :    0.048984
  21 C :    0.046862
  22 N :    0.267674
  23 O :   -0.238291
  24 O :   -0.257288
  25 C :   -0.005482
  26 C :    0.031330
  27 C :   -0.014627
  28 C :    0.064021
  29 C :   -0.036837
  30 C :    0.036168
  31 C :    0.071303
  32 N :    0.280243
  33 O :   -0.278260
  34 O :   -0.261986
  35 C :    0.034952
  36 C :   -0.080250
  37 C :    0.087967
  38 C :   -0.146193
  39 S :    0.257395
  40 C :   -0.097038
  41 C :    0.104717
  42 C :    0.145233
  43 C :   -0.045766
  44 C :   -0.087794
  45 C :   -0.136448
  46 N :    0.124182
  47 C :    0.048985
  48 C :   -0.035529
  49 C :    0.030462
  50 C :    0.066689
  51 C :   -0.084685
  52 S :    0.176052
  53 C :   -0.054519
  54 C :   -0.047907
  55 C :    0.018742
  56 C :   -0.189447
  57 N :    0.150172
  58 C :    0.050726
  59 C :   -0.010742
  60 C :   -0.049111
  61 C :   -0.058589
  62 C :    0.338118
  63 C :   -0.350939
  64 C :   -0.183224
  65 N :    0.155182
  66 C :   -0.188983
  67 N :    0.144695
  68 C :    0.045519
  69 C :   -0.007404
  70 C :    0.150132
  71 O :   -0.134332
  72 C :   -0.074569
  73 C :    0.097637
  74 C :    0.095541
  75 C :   -0.082309
  76 C :   -0.017534
  77 C :    0.036939
  78 C :    0.035911
  79 C :   -0.014018
  80 H :   -0.011825
  81 H :   -0.001436
  82 H :   -0.010125
  83 H :   -0.003421
  84 H :   -0.004375
  85 H :   -0.016768
  86 H :    0.006447
  87 H :   -0.009199
  88 H :   -0.007718
  89 H :   -0.002091
  90 H :    0.009986
  91 H :    0.039723
  92 H :    0.033419
  93 H :    0.006503
  94 H :    0.004984
  95 H :   -0.009927
  96 H :    0.009463
  97 H :    0.003137
  98 H :    0.009296
  99 H :    0.009554
 100 H :    0.057407
 101 H :    0.013039
 102 H :   -0.009922
 103 H :   -0.008236
 104 H :   -0.008995
 105 H :   -0.002945
 106 H :   -0.003204
 107 H :   -0.015680
Sum of atomic charges:    0.0000000

LOEWDIN ATOMIC CHARGES
----------------------
   0 C :    0.090578
   1 C :   -0.151801
   2 C :   -0.020009
   3 N :   -0.052520
   4 C :    0.020255
   5 N :   -0.083067
   6 C :   -0.018102
   7 C :   -0.052204
   8 C :    0.032746
   9 C :   -0.006415
  10 C :   -0.004928
  11 C :    0.026960
  12 C :   -0.004290
  13 C :   -0.012679
  14 C :   -0.011258
  15 C :   -0.009179
  16 C :    0.086909
  17 O :   -0.141043
  18 C :   -0.070120
  19 C :    0.059548
  20 C :   -0.039710
  21 C :   -0.028677
  22 N :    0.285610
  23 O :   -0.203702
  24 O :   -0.211951
  25 C :   -0.033217
  26 C :   -0.020377
  27 C :    0.006495
  28 C :    0.051779
  29 C :   -0.073767
  30 C :    0.064780
  31 C :   -0.099225
  32 N :    0.288182
  33 O :   -0.242625
  34 O :   -0.226075
  35 C :    0.030334
  36 C :   -0.014676
  37 C :    0.029570
  38 C :   -0.175978
  39 S :    0.566502
  40 C :   -0.138012
  41 C :   -0.040598
  42 C :   -0.019402
  43 C :    0.024523
  44 C :   -0.049350
  45 C :   -0.030005
  46 N :   -0.034993
  47 C :    0.006600
  48 C :   -0.001866
  49 C :   -0.038536
  50 C :   -0.016303
  51 C :   -0.167630
  52 S :    0.479613
  53 C :   -0.141363
  54 C :   -0.086275
  55 C :   -0.009368
  56 C :   -0.034234
  57 N :   -0.029109
  58 C :   -0.010475
  59 C :   -0.001208
  60 C :    0.059381
  61 C :   -0.075534
  62 C :    0.074307
  63 C :   -0.134374
  64 C :   -0.017245
  65 N :   -0.049347
  66 C :   -0.019052
  67 N :   -0.052193
  68 C :   -0.026561
  69 C :   -0.056383
  70 C :    0.083833
  71 O :   -0.130916
  72 C :    0.035203
  73 C :   -0.007249
  74 C :   -0.005627
  75 C :    0.020637
  76 C :   -0.004741
  77 C :   -0.012117
  78 C :   -0.010556
  79 C :   -0.008462
  80 H :    0.039645
  81 H :    0.040650
  82 H :    0.034752
  83 H :    0.033532
  84 H :    0.033102
  85 H :    0.032149
  86 H :    0.043801
  87 H :    0.033295
  88 H :    0.028485
  89 H :    0.029165
  90 H :    0.042120
  91 H :    0.039378
  92 H :    0.037361
  93 H :    0.045481
  94 H :    0.043904
  95 H :    0.034568
  96 H :    0.037179
  97 H :    0.033475
  98 H :    0.043058
  99 H :    0.038214
 100 H :    0.042107
 101 H :    0.042281
 102 H :    0.040457
 103 H :    0.039100
 104 H :    0.034927
 105 H :    0.033966
 106 H :    0.033529
 107 H :    0.032652

  Mayer bond orders larger than 0.100000
B(  0-C ,  1-C ) :   1.6470 B(  0-C ,  6-C ) :   1.0118 B(  0-C , 18-C ) :   0.9942
B(  1-C ,  2-C ) :   1.1254 B(  1-C ,  4-C ) :   1.1848 B(  2-C ,  3-N ) :   3.0001
B(  4-C ,  5-N ) :   2.9164 B(  5-N , 92-H ) :   0.1116 B(  6-C ,  7-C ) :   1.2110
B(  6-C , 11-C ) :   1.4543 B(  7-C ,  8-C ) :   1.4675 B(  7-C , 16-C ) :   0.9244
B(  8-C ,  9-C ) :   1.1854 B(  8-C , 80-H ) :   1.0169 B(  9-C , 10-C ) :   1.2548
B(  9-C , 15-C ) :   1.2435 B( 10-C , 11-C ) :   1.2062 B( 10-C , 12-C ) :   1.2387
B( 11-C , 81-H ) :   0.9953 B( 12-C , 13-C ) :   1.4900 B( 12-C , 82-H ) :   0.9981
B( 13-C , 14-C ) :   1.2590 B( 13-C , 83-H ) :   0.9893 B( 14-C , 15-C ) :   1.4891
B( 14-C , 84-H ) :   0.9886 B( 15-C , 85-H ) :   0.9986 B( 16-C , 17-O ) :   2.2550
B( 16-C , 18-C ) :   0.9381 B( 18-C , 19-C ) :   1.7512 B( 19-C , 20-C ) :   1.0591
B( 19-C , 86-H ) :   0.9274 B( 20-C , 21-C ) :   1.4097 B( 20-C , 27-C ) :   1.1592
B( 21-C , 22-N ) :   0.9499 B( 21-C , 25-C ) :   1.1998 B( 22-N , 23-O ) :   1.5359
B( 22-N , 24-O ) :   1.4798 B( 23-O , 24-O ) :   0.2561 B( 25-C , 26-C ) :   1.5320
B( 25-C , 87-H ) :   1.0140 B( 26-C , 27-C ) :   1.1453 B( 26-C , 88-H ) :   0.9818
B( 27-C , 28-C ) :   1.3179 B( 28-C , 29-C ) :   1.2836 B( 28-C , 35-C ) :   0.9988
B( 29-C , 30-C ) :   1.3914 B( 29-C , 89-H ) :   1.0107 B( 30-C , 31-C ) :   1.2461
B( 30-C , 90-H ) :   1.0077 B( 31-C , 32-N ) :   0.9801 B( 31-C , 35-C ) :   1.3070
B( 32-N , 33-O ) :   1.4742 B( 32-N , 34-O ) :   1.5266 B( 33-O , 34-O ) :   0.2408
B( 35-C , 36-C ) :   1.4037 B( 36-C , 37-C ) :   1.3115 B( 36-C , 91-H ) :   0.9446
B( 37-C , 38-C ) :   1.3646 B( 37-C , 92-H ) :   0.8910 B( 38-C , 39-S ) :   1.1368
B( 38-C , 42-C ) :   1.1859 B( 39-S , 40-C ) :   1.2145 B( 40-C , 41-C ) :   1.2444
B( 40-C , 49-C ) :   1.1741 B( 41-C , 42-C ) :   1.2541 B( 41-C , 48-C ) :   1.2339
B( 42-C , 43-C ) :   1.2449 B( 43-C , 44-C ) :   1.4721 B( 43-C , 93-H ) :   0.9964
B( 44-C , 45-C ) :   1.0568 B( 44-C , 47-C ) :   1.2637 B( 45-C , 46-N ) :   3.0510
B( 47-C , 48-C ) :   1.4964 B( 47-C , 94-H ) :   0.9900 B( 48-C , 95-H ) :   0.9923
B( 49-C , 50-C ) :   1.6552 B( 49-C , 96-H ) :   0.9494 B( 50-C , 51-C ) :   1.1428
B( 50-C , 97-H ) :   0.9552 B( 51-C , 52-S ) :   1.1212 B( 51-C , 55-C ) :   1.4488
B( 52-S , 53-C ) :   1.1476 B( 53-C , 54-C ) :   1.4278 B( 53-C , 58-C ) :   1.1245
B( 54-C , 55-C ) :   1.3323 B( 54-C , 56-C ) :   1.1109 B( 55-C , 98-H ) :   0.9969
B( 56-C , 57-N ) :   2.9951 B( 58-C , 59-C ) :   1.6021 B( 58-C , 99-H ) :   0.9584
B( 59-C , 60-C ) :   1.1494 B( 59-C ,100-H ) :   0.9646 B( 60-C , 61-C ) :   1.5679
B( 60-C ,101-H ) :   0.9609 B( 61-C , 62-C ) :   1.0549 B( 61-C , 70-C ) :   0.9309
B( 62-C , 63-C ) :   1.6281 B( 62-C , 68-C ) :   0.9925 B( 63-C , 64-C ) :   1.1469
B( 63-C , 66-C ) :   1.1479 B( 64-C , 65-N ) :   2.9638 B( 66-C , 67-N ) :   2.9564
B( 68-C , 69-C ) :   1.2128 B( 68-C , 75-C ) :   1.4460 B( 69-C , 70-C ) :   0.9454
B( 69-C , 72-C ) :   1.4724 B( 70-C , 71-O ) :   2.2129 B( 72-C , 73-C ) :   1.1803
B( 72-C ,102-H ) :   1.0158 B( 73-C , 74-C ) :   1.2529 B( 73-C , 79-C ) :   1.2440
B( 74-C , 75-C ) :   1.2106 B( 74-C , 76-C ) :   1.2399 B( 75-C ,103-H ) :   0.9878
B( 76-C , 77-C ) :   1.4911 B( 76-C ,104-H ) :   0.9964 B( 77-C , 78-C ) :   1.2582
B( 77-C ,105-H ) :   0.9881 B( 78-C , 79-C ) :   1.4898 B( 78-C ,106-H ) :   0.9890
B( 79-C ,107-H ) :   0.9974

-----------------------------------------------------------------------------
         ABSORPTION SPECTRUM VIA TRANSITION ELECTRIC DIPOLE MOMENTS
-----------------------------------------------------------------------------
State   Energy  Wavelength   fosc         T2         TX        TY        TZ
        (cm-1)    (nm)                  (au**2)     (au)      (au)      (au)
-----------------------------------------------------------------------------
   0    6613.5   1512.1   0.303506461  15.10829  -2.95451   1.85325  -1.71599
   1   13315.3    751.0   0.289423475   7.15583  -0.90424   1.34928  -2.12547
   2   16342.6    611.9   1.282321021  25.83165  -0.33666   3.68008  -3.48931
   3   17788.7    562.2   0.292793225   5.41867  -0.97558   1.77267  -1.15089
   4   19219.0    520.3   0.067879145   1.16274  -0.60131   0.73718  -0.50767
   5   19876.0    503.1   0.028246177   0.46785  -0.59465   0.30842   0.13827
   6   21168.6    472.4   0.196426130   3.05480  -0.37509  -1.07353   1.32727
   7   22071.9    453.1   0.072736462   1.08489   0.67433  -0.67459  -0.41845
   8   22481.3    444.8   0.060635291   0.88793  -0.67738  -0.26502   0.59904
   9   22740.9    439.7   0.006708930   0.09712  -0.20169   0.17048  -0.16547
  10   23767.5    420.7   0.088702118   1.22864  -0.32693  -0.21376   1.03733
  11   24261.4    412.2   0.005950689   0.08075  -0.13120   0.15341   0.19999
  12   24959.7    400.6   0.324112481   4.27496   1.00032   1.57443  -0.89191
  13   25301.4    395.2   0.053281456   0.69328  -0.74231  -0.03996  -0.37504
  14   25512.3    392.0   0.037529048   0.48428  -0.42539   0.12255  -0.53693
  15   26051.4    383.9   0.000598749   0.00757  -0.03686  -0.03696  -0.06958
  16   26135.5    382.6   0.027035812   0.34055  -0.42655  -0.21757   0.33358
  17   26422.6    378.5   0.075751340   0.94382   0.83723  -0.46734  -0.15641
  18   27085.8    369.2   0.034154242   0.41512   0.21910  -0.24251  -0.55526
  19   27274.3    366.6   0.093044611   1.12309  -0.95062  -0.44186   0.15548
  20   27677.6    361.3   0.086978307   1.03457  -0.70586   0.68365   0.26257
  21   28046.3    356.6   0.023648306   0.27759  -0.05155  -0.40906  -0.32802
  22   28264.0    353.8   0.042483924   0.49484   0.07273  -0.31392   0.62530
  23   28424.7    351.8   0.092826605   1.07511  -0.96439  -0.37317  -0.07617
  24   28792.5    347.3   0.108690169   1.24276   0.99257   0.48118  -0.16135
  25   29366.4    340.5   0.295660131   3.31450  -0.73260  -0.36772   1.62560
  26   29595.3    337.9   0.029414520   0.32720  -0.02548  -0.44432   0.35935
  27   29824.6    335.3   0.023305137   0.25725   0.10309  -0.27151   0.41582
  28   30132.6    331.9   0.094435793   1.03175  -0.20188  -0.99548   0.00365
  29   30331.2    329.7   0.064159190   0.69638   0.04478   0.05363  -0.83156
  30   30595.9    326.8   0.061643275   0.66328  -0.39268  -0.67261   0.23807
  31   30913.1    323.5   0.041910456   0.44633   0.19349  -0.21673  -0.60160
  32   31086.0    321.7   0.098878967   1.04717  -0.34407   0.68905  -0.67379
  33   31365.7    318.8   0.008990452   0.09436  -0.04661   0.21172  -0.21764
  34   31485.0    317.6   0.041930489   0.43843   0.36280   0.52535   0.17556
  35   31852.5    313.9   0.067375304   0.69636   0.79548   0.17697   0.17960
  36   32238.9    310.2   0.095161873   0.97176   0.64410  -0.53151   0.52381
  37   32345.7    309.2   0.099713050   1.01487  -0.09936   0.60749   0.79747
  38   32531.6    307.4   0.119773597   1.21208  -0.83183  -0.47958   0.53865
  39   32684.2    306.0   0.017899326   0.18029   0.14140   0.24294  -0.31824
  40   32822.1    304.7   0.010720539   0.10753  -0.02261  -0.03185   0.32558
  41   33118.6    301.9   0.068556686   0.68148   0.15164  -0.00176  -0.81147
  42   33274.1    300.5   0.024134829   0.23879  -0.09955  -0.09581  -0.46872
  43   33458.2    298.9   0.327272670   3.22020   1.58032  -0.52151   0.67144
  44   33565.6    297.9   0.339754152   3.33232  -0.22904   0.38246   1.77019
  45   33753.9    296.3   0.053925240   0.52595  -0.63060   0.34035  -0.11160
  46   33836.5    295.5   0.014195277   0.13811  -0.06843  -0.14859  -0.33370
  47   34575.1    289.2   0.073351876   0.69843   0.78489  -0.25934  -0.12299
  48   34652.9    288.6   0.030055328   0.28553  -0.19249   0.45146   0.21133
  49   34744.1    287.8   0.121541117   1.15164   0.89285  -0.27960  -0.52562
  50   34819.0    287.2   0.000847609   0.00801   0.05950  -0.06187   0.02542
  51   34871.0    286.8   0.116374352   1.09867   0.94307  -0.16863  -0.42526
  52   35189.4    284.2   0.038584362   0.36097   0.54381  -0.23230   0.10624
  53   35437.1    282.2   0.025415609   0.23611   0.42783   0.10992   0.20247
  54   35870.0    278.8   0.137120715   1.25848   0.18394  -0.17793   1.09224
  55   36017.8    277.6   0.052804574   0.48265  -0.49693  -0.28101   0.39590
  56   36288.9    275.6   0.245404547   2.22630   1.48531  -0.14142  -0.01261
  57   36405.7    274.7   0.005899128   0.05335   0.06260  -0.11628  -0.18949
  58   36851.1    271.4   0.056152447   0.50164   0.52604  -0.41213  -0.23467
  59   37111.8    269.5   0.166640283   1.47824  -0.39258   1.10412   0.32408
  60   37457.9    267.0   0.076814664   0.67511  -0.28589   0.43534   0.63550
  61   37546.9    266.3   0.121662844   1.06674   0.93916   0.25222  -0.34799
  62   37726.9    265.1   0.086335920   0.75338   0.51015   0.61513  -0.33874
  63   37915.9    263.7   0.093182022   0.80907   0.43394   0.62914   0.47430
  64   37988.8    263.2   0.321720195   2.78804   1.53383  -0.18859  -0.63232
  65   38079.8    262.6   0.183369420   1.58529   0.19563   1.00102  -0.73823
  66   38236.8    261.5   0.021107310   0.18173  -0.33260   0.00895   0.26651
  67   38541.0    259.5   0.034835454   0.29756  -0.19410   0.40150   0.31414
  68   38770.5    257.9   0.024785104   0.21046   0.32973   0.19756   0.25042
  69   38865.4    257.3   0.030934005   0.26203   0.34314  -0.35394  -0.13788
  70   38995.8    256.4   0.007392230   0.06241   0.18086  -0.16553  -0.04793
  71   39165.0    255.3   0.051980591   0.43694  -0.44017   0.25377  -0.42283
  72   39461.4    253.4   0.036601624   0.30535   0.21143  -0.46993  -0.19955
  73   40089.9    249.4   0.193720770   1.59080   0.49119  -1.06806  -0.45693
  74   40260.1    248.4   0.045112167   0.36889  -0.07657  -0.27003   0.53862

FINAL SINGLE POINT ENERGY     -4136.549580827776

DIPOLE MOMENT
-------------
                                X             Y             Z
Electronic contribution:     -8.96976      -3.53720      20.69373
Nuclear contribution   :      9.78847       4.06500     -23.80072
                        -----------------------------------------
Total Dipole Moment    :      0.81871       0.52780      -3.10699
                        -----------------------------------------
Magnitude (a.u.)       :      3.25611
Magnitude (Debye)      :      8.27638

Rotational constants in cm-1:     0.000961     0.000233     0.000197
Rotational constants in MHz :    28.802497     6.986771     5.920480

                             ****ORCA TERMINATED NORMALLY****
TOTAL RUN TIME: 0 days 0 hours 13 minutes 17 seconds 292 msec
