                         Program Version 4.2.0 -  RELEASE  -
|  1> # ORCA input file
|  2> # SCF done       -210.210248501860          0.000538682880
|  3> ! CAM-B3LYP def2-SVP def2/J RIJCOSX Grid4 TightSCF
|  4> %maxcore 5000
|  5> %tddft
|  6>     Mode sTDDFT
|  7>     Ethresh 5.0
|  8>     maxcore 5000
|  9> end
| 10>
| 11> %pal
| 12>   nprocs 6
| 13>   end
| 14> * xyz 0 1
| 15>    C        2.96585         2.16507        -5.97389
| 16>    C        4.23271         2.56583        -6.30055
| 17>    C        5.07572         1.87086        -7.19368
| 18>    N        5.80338         1.34760        -7.91024
| 19>    C        4.87180         3.69079        -5.73780
| 20>    N        5.43602         4.58075        -5.28178
| 21>    C        2.28807         0.96399        -6.43945
| 22>    C        1.08225         0.79303        -5.69644
| 23>    C        0.24074        -0.25759        -5.92312
| 24>    C        0.56680        -1.19689        -6.92643
| 25>    C        1.76779        -1.03047        -7.67660
| 26>    C        2.62339         0.06332        -7.41663
| 27>    C        2.08033        -1.97435        -8.67654
| 28>    C        1.24864        -3.03185        -8.92531
| 29>    C        0.06680        -3.19476        -8.18651
| 30>    C       -0.26650        -2.29736        -7.20855
| 31>    C        0.95190         1.88376        -4.72057
| 32>    O        0.19309         1.96550        -3.78308
| 33>    C        2.05547         2.83796        -5.06078
| 34>    C        2.09609         4.11994        -4.64139
| 35>    C        1.05431         4.77885        -3.90738
| 36>    C       -0.30057         4.83821        -4.15957
| 37>    N       -1.03233         4.24034        -5.20626
| 38>    O       -2.23262         4.43366        -5.22424
| 39>    O       -0.43667         3.58629        -6.04785
| 40>    C       -0.92601         5.74422        -3.22079
| 41>    C        0.03285         6.28888        -2.44161
| 42>    C        1.31191         5.73349        -2.82184
| 43>    C        2.53540         5.94652        -2.22756
| 44>    C        3.60427         4.99777        -2.15393
| 45>    C        4.50434         5.41857        -1.22244
| 46>    C        4.09882         6.70103        -0.72905
| 47>    N        4.85809         7.43485         0.19931
| 48>    O        5.85627         6.90469         0.65035
| 49>    O        4.47477         8.55256         0.51581
| 50>    C        2.91717         7.08574        -1.36375
| 51>    C        2.32606         8.36197        -1.32662
| 52>    C        1.50919         8.84076        -2.31474
| 53>    C        0.82017        10.06466        -2.40383
| 54>    N        0.82085        11.17581        -1.59932
| 55>    C        1.57903        11.41121        -0.39074
| 56>    C        0.91462        10.77332         0.82645
| 57>    C       -0.07443        12.16102        -2.06859
| 58>    O       -0.23595        13.23230        -1.52890
| 59>    C       -0.66809        11.57957        -3.25993
| 60>    C       -0.09075        10.31331        -3.44182
| 61>    C       -0.68564         9.69725        -4.60961
| 62>    O       -0.50328         8.62469        -5.14228
| 63>    N       -1.60319        10.66570        -5.07101
| 64>    C       -2.43577        10.41504        -6.22465
| 65>    C       -3.85311        10.00454        -5.83444
| 66>    C       -1.61037        11.78298        -4.27710
| 67>    C       -2.45469        12.89781        -4.49759
| 68>    C       -2.43813        14.01391        -3.72522
| 69>    C       -3.35496        15.06637        -3.99360
| 70>    O       -4.25963        14.95298        -4.98826
| 71>    C       -4.95802        16.09715        -4.91050
| 72>    N       -4.49288        16.85953        -3.93865
| 73>    N       -3.49930        16.21560        -3.36527
| 74>    C       -6.06162        16.43466        -5.74124
| 75>    C       -6.73563        15.61813        -6.58843
| 76>    C       -7.90581        16.01896        -7.36627
| 77>    C       -8.25644        17.29770        -7.69792
| 78>    C       -9.38874        17.62225        -8.47790
| 79>    N      -10.29322        17.94655        -9.10462
| 80>    C       -7.52137        18.45800        -7.36630
| 81>    N       -6.96931        19.44267        -7.16182
| 82>    C       -8.58605        14.80766        -7.79910
| 83>    C       -7.78356        13.68560        -7.44494
| 84>    C       -6.56458        14.13747        -6.75784
| 85>    O       -5.63856        13.44053        -6.41003
| 86>    C       -8.16316        12.40578        -7.73639
| 87>    C       -9.39015        12.18578        -8.39920
| 88>    C      -10.20445        13.30327        -8.74792
| 89>    C       -9.78308        14.61621        -8.43894
| 90>    C      -11.43048        13.07104        -9.40434
| 91>    C      -11.83343        11.79805        -9.70376
| 92>    C      -11.03080        10.69923        -9.36086
| 93>    C       -9.83505        10.88861        -8.72276
| 94>    H       -0.66757        -0.36574        -5.34955
| 95>    H        3.52184         0.16816        -8.00466
| 96>    H        2.99146        -1.84516        -9.24206
| 97>    H        1.49635        -3.74902        -9.69343
| 98>    H       -0.57802        -4.03488        -8.39674
| 99>    H       -1.17500        -2.41759        -6.63693
|100>    H        2.95303         4.73936        -4.87737
|101>    H       -1.98389         5.91962        -3.19267
|102>    H       -0.11474         6.94969        -1.61017
|103>    H        3.61108         4.04950        -2.65424
|104>    H        5.38690         4.90625        -0.88863
|105>    H        2.62721         8.98493        -0.49757
|106>    H        1.33436         8.21630        -3.18191
|107>    H        1.60582        12.49660        -0.25829
|108>    H        2.60094        11.05082        -0.52231
|109>    H       -0.05401        11.23392         1.00508
|110>    H        1.53975        10.92420         1.70134
|111>    H        0.76931         9.70498         0.68344
|112>    H       -1.95484         9.59649        -6.76757
|113>    H       -2.45339        11.30245        -6.86232
|114>    H       -3.82487         9.12965        -5.18942
|115>    H       -4.41343         9.75493        -6.73086
|116>    H       -4.36885        10.80968        -5.31700
|117>    H       -3.15707        12.84734        -5.31895
|118>    H       -1.76620        14.14652        -2.88991
|119>    H       -6.38369        17.45719        -5.59869
|120>    H       -7.53594        11.57108        -7.46019
|121>    H      -10.42378        15.44042        -8.70920
|122>    H      -12.04424        13.91973        -9.66760
|123>    H      -12.77368        11.63046       -10.20685
|124>    H      -11.36496         9.70206        -9.60449
|125>    H       -9.21352        10.04649        -8.45613
|126> *
|127>
|128>                          ****END OF INPUT****

CARTESIAN COORDINATES (ANGSTROEM)
---------------------------------
  C      2.965850    2.165070   -5.973890
  C      4.232710    2.565830   -6.300550
  C      5.075720    1.870860   -7.193680
  N      5.803380    1.347600   -7.910240
  C      4.871800    3.690790   -5.737800
  N      5.436020    4.580750   -5.281780
  C      2.288070    0.963990   -6.439450
  C      1.082250    0.793030   -5.696440
  C      0.240740   -0.257590   -5.923120
  C      0.566800   -1.196890   -6.926430
  C      1.767790   -1.030470   -7.676600
  C      2.623390    0.063320   -7.416630
  C      2.080330   -1.974350   -8.676540
  C      1.248640   -3.031850   -8.925310
  C      0.066800   -3.194760   -8.186510
  C     -0.266500   -2.297360   -7.208550
  C      0.951900    1.883760   -4.720570
  O      0.193090    1.965500   -3.783080
  C      2.055470    2.837960   -5.060780
  C      2.096090    4.119940   -4.641390
  C      1.054310    4.778850   -3.907380
  C     -0.300570    4.838210   -4.159570
  N     -1.032330    4.240340   -5.206260
  O     -2.232620    4.433660   -5.224240
  O     -0.436670    3.586290   -6.047850
  C     -0.926010    5.744220   -3.220790
  C      0.032850    6.288880   -2.441610
  C      1.311910    5.733490   -2.821840
  C      2.535400    5.946520   -2.227560
  C      3.604270    4.997770   -2.153930
  C      4.504340    5.418570   -1.222440
  C      4.098820    6.701030   -0.729050
  N      4.858090    7.434850    0.199310
  O      5.856270    6.904690    0.650350
  O      4.474770    8.552560    0.515810
  C      2.917170    7.085740   -1.363750
  C      2.326060    8.361970   -1.326620
  C      1.509190    8.840760   -2.314740
  C      0.820170   10.064660   -2.403830
  N      0.820850   11.175810   -1.599320
  C      1.579030   11.411210   -0.390740
  C      0.914620   10.773320    0.826450
  C     -0.074430   12.161020   -2.068590
  O     -0.235950   13.232300   -1.528900
  C     -0.668090   11.579570   -3.259930
  C     -0.090750   10.313310   -3.441820
  C     -0.685640    9.697250   -4.609610
  O     -0.503280    8.624690   -5.142280
  N     -1.603190   10.665700   -5.071010
  C     -2.435770   10.415040   -6.224650
  C     -3.853110   10.004540   -5.834440
  C     -1.610370   11.782980   -4.277100
  C     -2.454690   12.897810   -4.497590
  C     -2.438130   14.013910   -3.725220
  C     -3.354960   15.066370   -3.993600
  O     -4.259630   14.952980   -4.988260
  C     -4.958020   16.097150   -4.910500
  N     -4.492880   16.859530   -3.938650
  N     -3.499300   16.215600   -3.365270
  C     -6.061620   16.434660   -5.741240
  C     -6.735630   15.618130   -6.588430
  C     -7.905810   16.018960   -7.366270
  C     -8.256440   17.297700   -7.697920
  C     -9.388740   17.622250   -8.477900
  N    -10.293220   17.946550   -9.104620
  C     -7.521370   18.458000   -7.366300
  N     -6.969310   19.442670   -7.161820
  C     -8.586050   14.807660   -7.799100
  C     -7.783560   13.685600   -7.444940
  C     -6.564580   14.137470   -6.757840
  O     -5.638560   13.440530   -6.410030
  C     -8.163160   12.405780   -7.736390
  C     -9.390150   12.185780   -8.399200
  C    -10.204450   13.303270   -8.747920
  C     -9.783080   14.616210   -8.438940
  C    -11.430480   13.071040   -9.404340
  C    -11.833430   11.798050   -9.703760
  C    -11.030800   10.699230   -9.360860
  C     -9.835050   10.888610   -8.722760
  H     -0.667570   -0.365740   -5.349550
  H      3.521840    0.168160   -8.004660
  H      2.991460   -1.845160   -9.242060
  H      1.496350   -3.749020   -9.693430
  H     -0.578020   -4.034880   -8.396740
  H     -1.175000   -2.417590   -6.636930
  H      2.953030    4.739360   -4.877370
  H     -1.983890    5.919620   -3.192670
  H     -0.114740    6.949690   -1.610170
  H      3.611080    4.049500   -2.654240
  H      5.386900    4.906250   -0.888630
  H      2.627210    8.984930   -0.497570
  H      1.334360    8.216300   -3.181910
  H      1.605820   12.496600   -0.258290
  H      2.600940   11.050820   -0.522310
  H     -0.054010   11.233920    1.005080
  H      1.539750   10.924200    1.701340
  H      0.769310    9.704980    0.683440
  H     -1.954840    9.596490   -6.767570
  H     -2.453390   11.302450   -6.862320
  H     -3.824870    9.129650   -5.189420
  H     -4.413430    9.754930   -6.730860
  H     -4.368850   10.809680   -5.317000
  H     -3.157070   12.847340   -5.318950
  H     -1.766200   14.146520   -2.889910
  H     -6.383690   17.457190   -5.598690
  H     -7.535940   11.571080   -7.460190
  H    -10.423780   15.440420   -8.709200
  H    -12.044240   13.919730   -9.667600
  H    -12.773680   11.630460  -10.206850
  H    -11.364960    9.702060   -9.604490
  H     -9.213520   10.046490   -8.456130

 Total Charge           Charge          ....    0
 Multiplicity           Mult            ....    1
 Number of Electrons    NEL             ....  534
 Basis Dimension        Dim             .... 1266

ORBITAL ENERGIES
----------------

  NO   OCC          E(Eh)            E(eV)
   0   2.0000     -19.330455      -526.0084
   1   2.0000     -19.248729      -523.7845
   2   2.0000     -19.245155      -523.6873
   3   2.0000     -19.240805      -523.5689
   4   2.0000     -19.239386      -523.5303
   5   2.0000     -19.235320      -523.4197
   6   2.0000     -19.218308      -522.9568
   7   2.0000     -19.211781      -522.7791
   8   2.0000     -19.207012      -522.6494
   9   2.0000     -14.654325      -398.7645
  10   2.0000     -14.649505      -398.6333
  11   2.0000     -14.471749      -393.7963
  12   2.0000     -14.468057      -393.6958
  13   2.0000     -14.458248      -393.4289
  14   2.0000     -14.452646      -393.2765
  15   2.0000     -14.428741      -392.6260
  16   2.0000     -14.428169      -392.6104
  17   2.0000     -14.423653      -392.4875
  18   2.0000     -14.420583      -392.4040
  19   2.0000     -10.393699      -282.8269
  20   2.0000     -10.390181      -282.7312
  21   2.0000     -10.389919      -282.7241
  22   2.0000     -10.388586      -282.6878
  23   2.0000     -10.387739      -282.6647
  24   2.0000     -10.371925      -282.2344
  25   2.0000     -10.361686      -281.9558
  26   2.0000     -10.360212      -281.9157
  27   2.0000     -10.355961      -281.8000
  28   2.0000     -10.354452      -281.7590
  29   2.0000     -10.349777      -281.6317
  30   2.0000     -10.347384      -281.5666
  31   2.0000     -10.341820      -281.4152
  32   2.0000     -10.341403      -281.4039
  33   2.0000     -10.335968      -281.2560
  34   2.0000     -10.333413      -281.1865
  35   2.0000     -10.332739      -281.1681
  36   2.0000     -10.330419      -281.1050
  37   2.0000     -10.329350      -281.0759
  38   2.0000     -10.328614      -281.0559
  39   2.0000     -10.328573      -281.0548
  40   2.0000     -10.325812      -280.9796
  41   2.0000     -10.323428      -280.9147
  42   2.0000     -10.322819      -280.8982
  43   2.0000     -10.322805      -280.8978
  44   2.0000     -10.320468      -280.8342
  45   2.0000     -10.317804      -280.7617
  46   2.0000     -10.317405      -280.7509
  47   2.0000     -10.316007      -280.7128
  48   2.0000     -10.314685      -280.6768
  49   2.0000     -10.314112      -280.6613
  50   2.0000     -10.311254      -280.5835
  51   2.0000     -10.310732      -280.5693
  52   2.0000     -10.310492      -280.5627
  53   2.0000     -10.310197      -280.5547
  54   2.0000     -10.310193      -280.5546
  55   2.0000     -10.308773      -280.5160
  56   2.0000     -10.307615      -280.4845
  57   2.0000     -10.305583      -280.4292
  58   2.0000     -10.303508      -280.3727
  59   2.0000     -10.301287      -280.3123
  60   2.0000     -10.301013      -280.3048
  61   2.0000     -10.300831      -280.2999
  62   2.0000     -10.299518      -280.2641
  63   2.0000     -10.298159      -280.2272
  64   2.0000     -10.297757      -280.2162
  65   2.0000     -10.297660      -280.2136
  66   2.0000     -10.297117      -280.1988
  67   2.0000     -10.296605      -280.1849
  68   2.0000     -10.292771      -280.0805
  69   2.0000     -10.292161      -280.0639
  70   2.0000     -10.290969      -280.0315
  71   2.0000     -10.289591      -279.9940
  72   2.0000     -10.288958      -279.9768
  73   2.0000     -10.288788      -279.9722
  74   2.0000     -10.288368      -279.9607
  75   2.0000     -10.284225      -279.8480
  76   2.0000     -10.281302      -279.7685
  77   2.0000     -10.272799      -279.5371
  78   2.0000     -10.267840      -279.4021
  79   2.0000      -1.325893       -36.0794
  80   2.0000      -1.319167       -35.8964
  81   2.0000      -1.282349       -34.8945
  82   2.0000      -1.151728       -31.3401
  83   2.0000      -1.151161       -31.3247
  84   2.0000      -1.144549       -31.1448
  85   2.0000      -1.144527       -31.1442
  86   2.0000      -1.136418       -30.9235
  87   2.0000      -1.133670       -30.8487
  88   2.0000      -1.106108       -30.0987
  89   2.0000      -1.082326       -29.4516
  90   2.0000      -1.071455       -29.1558
  91   2.0000      -1.032677       -28.1006
  92   2.0000      -1.025569       -27.9072
  93   2.0000      -1.022616       -27.8268
  94   2.0000      -1.012426       -27.5495
  95   2.0000      -1.006574       -27.3903
  96   2.0000      -1.004187       -27.3253
  97   2.0000      -1.002395       -27.2766
  98   2.0000      -0.999836       -27.2069
  99   2.0000      -0.987359       -26.8674
 100   2.0000      -0.975231       -26.5374
 101   2.0000      -0.971503       -26.4360
 102   2.0000      -0.944686       -25.7062
 103   2.0000      -0.938089       -25.5267
 104   2.0000      -0.929399       -25.2902
 105   2.0000      -0.927075       -25.2270
 106   2.0000      -0.922919       -25.1139
 107   2.0000      -0.916393       -24.9363
 108   2.0000      -0.910318       -24.7710
 109   2.0000      -0.905922       -24.6514
 110   2.0000      -0.894173       -24.3317
 111   2.0000      -0.887825       -24.1589
 112   2.0000      -0.885415       -24.0934
 113   2.0000      -0.884579       -24.0706
 114   2.0000      -0.879488       -23.9321
 115   2.0000      -0.875809       -23.8320
 116   2.0000      -0.854040       -23.2396
 117   2.0000      -0.841240       -22.8913
 118   2.0000      -0.836336       -22.7579
 119   2.0000      -0.832541       -22.6546
 120   2.0000      -0.831831       -22.6353
 121   2.0000      -0.829846       -22.5813
 122   2.0000      -0.813888       -22.1470
 123   2.0000      -0.809828       -22.0365
 124   2.0000      -0.780202       -21.2304
 125   2.0000      -0.776809       -21.1381
 126   2.0000      -0.774796       -21.0833
 127   2.0000      -0.771449       -20.9922
 128   2.0000      -0.765944       -20.8424
 129   2.0000      -0.761012       -20.7082
 130   2.0000      -0.750460       -20.4211
 131   2.0000      -0.734618       -19.9900
 132   2.0000      -0.722826       -19.6691
 133   2.0000      -0.720221       -19.5982
 134   2.0000      -0.717937       -19.5361
 135   2.0000      -0.717023       -19.5112
 136   2.0000      -0.712264       -19.3817
 137   2.0000      -0.709565       -19.3083
 138   2.0000      -0.706895       -19.2356
 139   2.0000      -0.703328       -19.1385
 140   2.0000      -0.699286       -19.0285
 141   2.0000      -0.689216       -18.7545
 142   2.0000      -0.683269       -18.5927
 143   2.0000      -0.682467       -18.5709
 144   2.0000      -0.677543       -18.4369
 145   2.0000      -0.664834       -18.0911
 146   2.0000      -0.657684       -17.8965
 147   2.0000      -0.654511       -17.8102
 148   2.0000      -0.648847       -17.6560
 149   2.0000      -0.645619       -17.5682
 150   2.0000      -0.643883       -17.5209
 151   2.0000      -0.637677       -17.3521
 152   2.0000      -0.635214       -17.2850
 153   2.0000      -0.633993       -17.2518
 154   2.0000      -0.630455       -17.1556
 155   2.0000      -0.625808       -17.0291
 156   2.0000      -0.621701       -16.9173
 157   2.0000      -0.619090       -16.8463
 158   2.0000      -0.615775       -16.7561
 159   2.0000      -0.613121       -16.6839
 160   2.0000      -0.610299       -16.6071
 161   2.0000      -0.606435       -16.5019
 162   2.0000      -0.602501       -16.3949
 163   2.0000      -0.596022       -16.2186
 164   2.0000      -0.592383       -16.1195
 165   2.0000      -0.590636       -16.0720
 166   2.0000      -0.587700       -15.9921
 167   2.0000      -0.582010       -15.8373
 168   2.0000      -0.576435       -15.6856
 169   2.0000      -0.567269       -15.4362
 170   2.0000      -0.565454       -15.3868
 171   2.0000      -0.562508       -15.3066
 172   2.0000      -0.560525       -15.2527
 173   2.0000      -0.559809       -15.2332
 174   2.0000      -0.558759       -15.2046
 175   2.0000      -0.552420       -15.0321
 176   2.0000      -0.551738       -15.0136
 177   2.0000      -0.549793       -14.9606
 178   2.0000      -0.549714       -14.9585
 179   2.0000      -0.545961       -14.8563
 180   2.0000      -0.544802       -14.8248
 181   2.0000      -0.542045       -14.7498
 182   2.0000      -0.540619       -14.7110
 183   2.0000      -0.536448       -14.5975
 184   2.0000      -0.534814       -14.5530
 185   2.0000      -0.532584       -14.4923
 186   2.0000      -0.530882       -14.4460
 187   2.0000      -0.528111       -14.3706
 188   2.0000      -0.525710       -14.3053
 189   2.0000      -0.524383       -14.2692
 190   2.0000      -0.522157       -14.2086
 191   2.0000      -0.519410       -14.1339
 192   2.0000      -0.517695       -14.0872
 193   2.0000      -0.515896       -14.0382
 194   2.0000      -0.514989       -14.0136
 195   2.0000      -0.512163       -13.9367
 196   2.0000      -0.511132       -13.9086
 197   2.0000      -0.509680       -13.8691
 198   2.0000      -0.509164       -13.8550
 199   2.0000      -0.500766       -13.6265
 200   2.0000      -0.499228       -13.5847
 201   2.0000      -0.496055       -13.4983
 202   2.0000      -0.493128       -13.4187
 203   2.0000      -0.491647       -13.3784
 204   2.0000      -0.489671       -13.3246
 205   2.0000      -0.486410       -13.2359
 206   2.0000      -0.485908       -13.2222
 207   2.0000      -0.482037       -13.1169
 208   2.0000      -0.479344       -13.0436
 209   2.0000      -0.478645       -13.0246
 210   2.0000      -0.470700       -12.8084
 211   2.0000      -0.468124       -12.7383
 212   2.0000      -0.467817       -12.7300
 213   2.0000      -0.462611       -12.5883
 214   2.0000      -0.461670       -12.5627
 215   2.0000      -0.460484       -12.5304
 216   2.0000      -0.458349       -12.4723
 217   2.0000      -0.455396       -12.3920
 218   2.0000      -0.455229       -12.3874
 219   2.0000      -0.454741       -12.3741
 220   2.0000      -0.454121       -12.3573
 221   2.0000      -0.452531       -12.3140
 222   2.0000      -0.450165       -12.2496
 223   2.0000      -0.446684       -12.1549
 224   2.0000      -0.445527       -12.1234
 225   2.0000      -0.444649       -12.0995
 226   2.0000      -0.442030       -12.0283
 227   2.0000      -0.441483       -12.0134
 228   2.0000      -0.438710       -11.9379
 229   2.0000      -0.437765       -11.9122
 230   2.0000      -0.437046       -11.8926
 231   2.0000      -0.433779       -11.8037
 232   2.0000      -0.432691       -11.7741
 233   2.0000      -0.432624       -11.7723
 234   2.0000      -0.430325       -11.7097
 235   2.0000      -0.429174       -11.6784
 236   2.0000      -0.425160       -11.5692
 237   2.0000      -0.420463       -11.4414
 238   2.0000      -0.415114       -11.2958
 239   2.0000      -0.409827       -11.1520
 240   2.0000      -0.405324       -11.0294
 241   2.0000      -0.393074       -10.6961
 242   2.0000      -0.391742       -10.6598
 243   2.0000      -0.389112       -10.5883
 244   2.0000      -0.384694       -10.4681
 245   2.0000      -0.384191       -10.4544
 246   2.0000      -0.379353       -10.3227
 247   2.0000      -0.377183       -10.2637
 248   2.0000      -0.372794       -10.1442
 249   2.0000      -0.367264        -9.9938
 250   2.0000      -0.367080        -9.9888
 251   2.0000      -0.365709        -9.9514
 252   2.0000      -0.356913        -9.7121
 253   2.0000      -0.355135        -9.6637
 254   2.0000      -0.352378        -9.5887
 255   2.0000      -0.349852        -9.5199
 256   2.0000      -0.344464        -9.3733
 257   2.0000      -0.338057        -9.1990
 258   2.0000      -0.333437        -9.0733
 259   2.0000      -0.331038        -9.0080
 260   2.0000      -0.320562        -8.7229
 261   2.0000      -0.320212        -8.7134
 262   2.0000      -0.311367        -8.4727
 263   2.0000      -0.305069        -8.3013
 264   2.0000      -0.300213        -8.1692
 265   2.0000      -0.294877        -8.0240
 266   2.0000      -0.250819        -6.8251
 267   0.0000      -0.144556        -3.9336
 268   0.0000      -0.116681        -3.1750
 269   0.0000      -0.099140        -2.6977
 270   0.0000      -0.085084        -2.3152
 271   0.0000      -0.071292        -1.9399

MULLIKEN ATOMIC CHARGES
-----------------------
   0 C :    0.300977
   1 C :   -0.343178
   2 C :   -0.180854
   3 N :    0.155640
   4 C :   -0.196371
   5 N :    0.161103
   6 C :    0.056870
   7 C :    0.010827
   8 C :   -0.071407
   9 C :    0.093626
  10 C :    0.097320
  11 C :   -0.086335
  12 C :   -0.016311
  13 C :    0.035105
  14 C :    0.037358
  15 C :   -0.013575
  16 C :    0.135281
  17 O :   -0.143355
  18 C :   -0.019670
  19 C :   -0.115572
  20 C :    0.061141
  21 C :    0.115026
  22 N :    0.276231
  23 O :   -0.231216
  24 O :   -0.252235
  25 C :    0.037137
  26 C :    0.011067
  27 C :    0.021055
  28 C :    0.015751
  29 C :    0.011036
  30 C :    0.038594
  31 C :    0.079660
  32 N :    0.274851
  33 O :   -0.240459
  34 O :   -0.261875
  35 C :    0.045416
  36 C :   -0.033457
  37 C :   -0.054857
  38 C :    0.119158
  39 N :   -0.260486
  40 C :    0.093460
  41 C :    0.004958
  42 C :    0.161499
  43 O :   -0.189316
  44 C :   -0.056964
  45 C :   -0.041312
  46 C :    0.158065
  47 O :   -0.182945
  48 N :   -0.260513
  49 C :    0.089997
  50 C :    0.006485
  51 C :    0.158650
  52 C :   -0.038117
  53 C :   -0.008681
  54 C :    0.119552
  55 O :   -0.157359
  56 C :    0.097618
  57 N :   -0.050276
  58 N :   -0.043126
  59 C :   -0.030071
  60 C :   -0.054066
  61 C :    0.291364
  62 C :   -0.330652
  63 C :   -0.182218
  64 N :    0.158628
  65 C :   -0.201506
  66 N :    0.183284
  67 C :    0.054301
  68 C :   -0.003740
  69 C :    0.147052
  70 O :   -0.130447
  71 C :   -0.075651
  72 C :    0.097947
  73 C :    0.095091
  74 C :   -0.076788
  75 C :   -0.016507
  76 C :    0.039449
  77 C :    0.037441
  78 C :   -0.015290
  79 H :   -0.010655
  80 H :   -0.005851
  81 H :   -0.008656
  82 H :   -0.003189
  83 H :   -0.003704
  84 H :   -0.016441
  85 H :    0.049213
  86 H :    0.000869
  87 H :    0.003898
  88 H :    0.004673
  89 H :    0.012221
  90 H :    0.022469
  91 H :    0.038258
  92 H :    0.046796
  93 H :    0.042962
  94 H :    0.027564
  95 H :    0.034106
  96 H :    0.015274
  97 H :    0.046995
  98 H :    0.033957
  99 H :    0.026063
 100 H :    0.024495
 101 H :    0.024096
 102 H :    0.021950
 103 H :    0.048757
 104 H :    0.048531
 105 H :   -0.015072
 106 H :   -0.004695
 107 H :   -0.006114
 108 H :   -0.000503
 109 H :   -0.001015
 110 H :   -0.015562
Sum of atomic charges:   -0.0000000

LOEWDIN ATOMIC CHARGES
----------------------
   0 C :    0.079055
   1 C :   -0.132994
   2 C :   -0.018385
   3 N :   -0.046718
   4 C :   -0.019788
   5 N :   -0.048580
   6 C :   -0.022574
   7 C :   -0.049382
   8 C :    0.037798
   9 C :   -0.005661
  10 C :   -0.004627
  11 C :    0.021362
  12 C :   -0.004850
  13 C :   -0.012006
  14 C :   -0.010424
  15 C :   -0.008110
  16 C :    0.080082
  17 O :   -0.142197
  18 C :   -0.055953
  19 C :    0.048156
  20 C :   -0.000842
  21 C :   -0.002191
  22 N :    0.291524
  23 O :   -0.192657
  24 O :   -0.204250
  25 C :    0.012577
  26 C :   -0.025672
  27 C :    0.038915
  28 C :    0.046113
  29 C :   -0.035666
  30 C :    0.036122
  31 C :   -0.050071
  32 N :    0.286265
  33 O :   -0.205236
  34 O :   -0.226732
  35 C :    0.014567
  36 C :   -0.007782
  37 C :   -0.002624
  38 C :    0.063232
  39 N :    0.001023
  40 C :    0.037574
  41 C :   -0.060833
  42 C :    0.083174
  43 O :   -0.182245
  44 C :   -0.116248
  45 C :   -0.094667
  46 C :    0.082409
  47 O :   -0.182743
  48 N :    0.001864
  49 C :    0.037349
  50 C :   -0.059675
  51 C :    0.084025
  52 C :   -0.015279
  53 C :    0.013552
  54 C :    0.033118
  55 O :    0.042634
  56 C :    0.013160
  57 N :   -0.049203
  58 N :   -0.063066
  59 C :    0.042202
  60 C :   -0.059467
  61 C :    0.070109
  62 C :   -0.122278
  63 C :   -0.016716
  64 N :   -0.040639
  65 C :   -0.028199
  66 N :   -0.030549
  67 C :   -0.026511
  68 C :   -0.058864
  69 C :    0.082766
  70 O :   -0.137111
  71 C :    0.034453
  72 C :   -0.007172
  73 C :   -0.004098
  74 C :    0.022381
  75 C :   -0.003782
  76 C :   -0.008858
  77 C :   -0.008164
  78 C :   -0.008515
  79 H :    0.040510
  80 H :    0.039348
  81 H :    0.034974
  82 H :    0.033780
  83 H :    0.033376
  84 H :    0.032531
  85 H :    0.049290
  86 H :    0.037649
  87 H :    0.032028
  88 H :    0.032613
  89 H :    0.042727
  90 H :    0.036639
  91 H :    0.048822
  92 H :    0.039583
  93 H :    0.029748
  94 H :    0.031703
  95 H :    0.036553
  96 H :    0.020139
  97 H :    0.039167
  98 H :    0.028021
  99 H :    0.030507
 100 H :    0.032110
 101 H :    0.024444
 102 H :    0.041615
 103 H :    0.054169
 104 H :    0.064271
 105 H :    0.038336
 106 H :    0.040111
 107 H :    0.036109
 108 H :    0.035133
 109 H :    0.034588
 110 H :    0.032701

  Mayer bond orders larger than 0.100000
B(  0-C ,  1-C ) :   1.6565 B(  0-C ,  6-C ) :   1.0048 B(  0-C , 18-C ) :   1.0377
B(  1-C ,  2-C ) :   1.1349 B(  1-C ,  4-C ) :   1.1517 B(  2-C ,  3-N ) :   2.9762
B(  4-C ,  5-N ) :   2.9714 B(  6-C ,  7-C ) :   1.2117 B(  6-C , 11-C ) :   1.4398
B(  7-C ,  8-C ) :   1.4728 B(  7-C , 16-C ) :   0.9391 B(  8-C ,  9-C ) :   1.1877
B(  8-C , 79-H ) :   1.0156 B(  9-C , 10-C ) :   1.2502 B(  9-C , 15-C ) :   1.2441
B( 10-C , 11-C ) :   1.2166 B( 10-C , 12-C ) :   1.2362 B( 11-C , 80-H ) :   0.9907
B( 12-C , 13-C ) :   1.4925 B( 12-C , 81-H ) :   0.9976 B( 13-C , 14-C ) :   1.2562
B( 13-C , 82-H ) :   0.9891 B( 14-C , 15-C ) :   1.4918 B( 14-C , 83-H ) :   0.9889
B( 15-C , 84-H ) :   0.9974 B( 16-C , 17-O ) :   2.2570 B( 16-C , 18-C ) :   0.8947
B( 18-C , 19-C ) :   1.7395 B( 19-C , 20-C ) :   1.0327 B( 19-C , 85-H ) :   0.9249
B( 20-C , 21-C ) :   1.5872 B( 20-C , 27-C ) :   1.0687 B( 21-C , 22-N ) :   0.9320
B( 21-C , 25-C ) :   1.1232 B( 22-N , 23-O ) :   1.5475 B( 22-N , 24-O ) :   1.4982
B( 23-O , 24-O ) :   0.2636 B( 25-C , 26-C ) :   1.6085 B( 25-C , 86-H ) :   1.0067
B( 26-C , 27-C ) :   1.1038 B( 26-C , 87-H ) :   0.9939 B( 27-C , 28-C ) :   1.4928
B( 28-C , 29-C ) :   1.1614 B( 28-C , 35-C ) :   0.9881 B( 29-C , 30-C ) :   1.5369
B( 29-C , 88-H ) :   0.9982 B( 30-C , 31-C ) :   1.1457 B( 30-C , 89-H ) :   1.0117
B( 31-C , 32-N ) :   0.9553 B( 31-C , 35-C ) :   1.4738 B( 32-N , 33-O ) :   1.5400
B( 32-N , 34-O ) :   1.4825 B( 33-O , 34-O ) :   0.2565 B( 35-C , 36-C ) :   1.2222
B( 36-C , 37-C ) :   1.4603 B( 36-C , 90-H ) :   0.9495 B( 37-C , 38-C ) :   1.2382
B( 37-C , 91-H ) :   0.9321 B( 38-C , 39-N ) :   1.1758 B( 38-C , 45-C ) :   1.3104
B( 39-N , 40-C ) :   0.9300 B( 39-N , 42-C ) :   1.0532 B( 40-C , 41-C ) :   1.1206
B( 40-C , 92-H ) :   0.9261 B( 40-C , 93-H ) :   0.9508 B( 41-C , 94-H ) :   0.9614
B( 41-C , 95-H ) :   0.9680 B( 41-C , 96-H ) :   0.9676 B( 42-C , 43-O ) :   2.0656
B( 42-C , 44-C ) :   0.9736 B( 44-C , 45-C ) :   1.2783 B( 44-C , 51-C ) :   1.3138
B( 45-C , 46-C ) :   0.9700 B( 46-C , 47-O ) :   2.1170 B( 46-C , 48-N ) :   1.0349
B( 48-N , 49-C ) :   0.9372 B( 48-N , 51-C ) :   1.1843 B( 49-C , 50-C ) :   1.1245
B( 49-C , 97-H ) :   0.9288 B( 49-C , 98-H ) :   0.9498 B( 50-C , 99-H ) :   0.9621
B( 50-C ,100-H ) :   0.9667 B( 50-C ,101-H ) :   0.9669 B( 51-C , 52-C ) :   1.1368
B( 52-C , 53-C ) :   1.5894 B( 52-C ,102-H ) :   0.9653 B( 53-C , 54-C ) :   1.1338
B( 53-C ,103-H ) :   0.9469 B( 54-C , 55-O ) :   1.1742 B( 54-C , 58-N ) :   1.6158
B( 55-O , 56-C ) :   1.1603 B( 56-C , 57-N ) :   1.6314 B( 56-C , 59-C ) :   1.1429
B( 57-N , 58-N ) :   1.2550 B( 59-C , 60-C ) :   1.6326 B( 59-C ,104-H ) :   0.9394
B( 60-C , 61-C ) :   1.0354 B( 60-C , 69-C ) :   0.9065 B( 61-C , 62-C ) :   1.6714
B( 61-C , 67-C ) :   0.9991 B( 62-C , 63-C ) :   1.1412 B( 62-C , 65-C ) :   1.1324
B( 63-C , 64-N ) :   2.9731 B( 65-C , 66-N ) :   3.0011 B( 67-C , 68-C ) :   1.2127
B( 67-C , 74-C ) :   1.4441 B( 68-C , 69-C ) :   0.9487 B( 68-C , 71-C ) :   1.4638
B( 69-C , 70-O ) :   2.2344 B( 71-C , 72-C ) :   1.1890 B( 71-C ,105-H ) :   1.0156
B( 72-C , 73-C ) :   1.2522 B( 72-C , 78-C ) :   1.2402 B( 73-C , 74-C ) :   1.2110
B( 73-C , 75-C ) :   1.2383 B( 74-C ,106-H ) :   0.9905 B( 75-C , 76-C ) :   1.4898
B( 75-C ,107-H ) :   0.9977 B( 76-C , 77-C ) :   1.2590 B( 76-C ,108-H ) :   0.9885
B( 77-C , 78-C ) :   1.4914 B( 77-C ,109-H ) :   0.9889 B( 78-C ,110-H ) :   0.9983

-----------------------------------------------------------------------------
         ABSORPTION SPECTRUM VIA TRANSITION ELECTRIC DIPOLE MOMENTS
-----------------------------------------------------------------------------
State   Energy  Wavelength   fosc         T2         TX        TY        TZ
        (cm-1)    (nm)                  (au**2)     (au)      (au)      (au)
-----------------------------------------------------------------------------
   0    7031.7   1422.1   0.245646397  11.50067   1.74314  -2.83425   0.65512
   1   14063.0    711.1   0.030967453   0.72494   0.18510   0.15170   0.81711
   2   15247.5    655.8   0.588520666  12.70687   2.67296  -1.30741   1.96287
   3   17866.0    559.7   0.014721253   0.27127   0.40900   0.14563   0.28771
   4   19501.0    512.8   0.000496522   0.00838   0.09034   0.01284   0.00754
   5   19760.1    506.1   0.016061612   0.26759   0.20156  -0.06848  -0.47146
   6   21814.7    458.4   0.009131628   0.13781  -0.24304   0.27753   0.04141
   7   22164.5    451.2   0.043270349   0.64270   0.19255  -0.75031  -0.20655
   8   22992.1    434.9   0.006738811   0.09649  -0.25607   0.08348  -0.15475
   9   23464.3    426.2   0.081992732   1.15038   0.93235  -0.52643  -0.06299
  10   23957.8    417.4   0.164717865   2.26344  -0.83589   1.18676  -0.39540
  11   24384.4    410.1   0.056153865   0.75813  -0.02512  -0.51073  -0.70474
  12   24742.0    404.2   0.107790510   1.43424   0.07893  -0.92822  -0.75260
  13   25323.4    394.9   0.265338612   3.44948   1.51457  -0.67385   0.83753
  14   25340.1    394.6   0.077624677   1.00848  -0.94287  -0.08516  -0.33500
  15   25746.7    388.4   0.134500041   1.71980   0.29063   1.04722   0.73394
  16   26359.6    379.4   0.012455345   0.15556  -0.34170   0.17920  -0.08177
  17   27040.4    369.8   0.001847256   0.02249  -0.10408  -0.05529  -0.09275
  18   27135.7    368.5   0.024376865   0.29574  -0.13201   0.42795   0.30851
  19   27473.8    364.0   0.103070652   1.23507  -0.32218  -0.95466  -0.46892
  20   27552.7    362.9   0.022352083   0.26707   0.12972  -0.48381  -0.12719
  21   27989.7    357.3   0.064665137   0.76059  -0.54520   0.55114  -0.39948
  22   28133.4    355.4   0.024590798   0.28776   0.47389   0.17099   0.18425
  23   28194.2    354.7   0.021495834   0.25100  -0.31186  -0.38970   0.04336
  24   28352.6    352.7   0.050814505   0.59003  -0.73506   0.19065  -0.11560
  25   28477.9    351.1   0.009509018   0.10993   0.03415   0.31709  -0.09065
  26   28708.8    348.3   0.001307996   0.01500  -0.03086  -0.08761   0.07982
  27   29115.2    343.5   0.161784697   1.82934   1.14125  -0.34432   0.63900
  28   29625.5    337.5   0.167106897   1.85697   0.93779   0.55094   0.82096
  29   29848.3    335.0   0.085118205   0.93881   0.48193   0.15475   0.82620
  30   29917.7    334.3   0.082194122   0.90446  -0.88815   0.15153  -0.30446
  31   30244.3    330.6   0.183344192   1.99571   1.10118   0.22316   0.85635
  32   30831.1    324.3   0.037022349   0.39532  -0.43503   0.27274   0.36288
  33   31239.3    320.1   0.272960669   2.87657  -1.53666   0.37864  -0.60983
  34   31308.7    319.4   0.015504948   0.16304  -0.27638   0.17871  -0.23391
  35   31814.7    314.3   0.098928196   1.02369  -0.45950  -0.90038  -0.04330
  36   31945.0    313.0   0.139530973   1.43795  -0.11134  -1.13892  -0.35836
  37   32303.1    309.6   0.172111881   1.75405  -0.71555  -1.08426  -0.25774
  38   32567.0    307.1   0.000598530   0.00605  -0.02414  -0.06498   0.03529
  39   32703.2    305.8   0.048681800   0.49006   0.24454  -0.62947  -0.18448
  40   32879.1    304.1   0.038003808   0.38052  -0.10893   0.59511  -0.12040
  41   33132.9    301.8   0.097508778   0.96886   0.89023  -0.14612   0.39371
  42   33454.1    298.9   0.319549568   3.14459   1.01586   1.42734   0.27444
  43   33726.0    296.5   0.041900727   0.40901   0.44609   0.44181   0.12174
  44   33828.5    295.6   0.020444700   0.19896  -0.08546   0.35080  -0.26191
  45   33907.6    294.9   0.017839379   0.17320   0.20672  -0.36121   0.00030
  46   34070.8    293.5   0.484973929   4.68610   1.14509   1.74509   0.57405
  47   34384.4    290.8   0.140296907   1.34327   0.10054  -1.12354  -0.26611
  48   34482.0    290.0   0.083572275   0.79789   0.03625   0.86236   0.23004
  49   34575.8    289.2   0.001033736   0.00984   0.01454  -0.00100  -0.09813
  50   34610.6    288.9   0.080080948   0.76172   0.27350   0.73707   0.37900
  51   35075.7    285.1   0.041143219   0.38616   0.42845   0.41046  -0.18471
  52   35109.3    284.8   0.082926914   0.77759   0.05920  -0.69263  -0.54254
  53   35329.4    283.1   0.002439230   0.02273  -0.12275   0.02981   0.08230
  54   35515.8    281.6   0.005464124   0.05065   0.06214  -0.12705   0.17506
  55   35766.5    279.6   0.064869728   0.59709   0.03822   0.76887   0.06685
  56   35991.2    277.8   0.081374458   0.74433   0.64376   0.38470   0.42651
  57   36040.8    277.5   0.015193241   0.13878   0.32732   0.14799   0.09872
  58   36302.2    275.5   0.065136704   0.59070  -0.22683  -0.63094  -0.37572
  59   36901.6    271.0   0.053548209   0.47772  -0.07164   0.62846   0.27862
  60   36955.0    270.6   0.190541075   1.69743  -0.23901  -1.23235  -0.34874
  61   37110.5    269.5   0.121023391   1.07361   0.79365   0.66600   0.01351
  62   37210.0    268.7   0.010947215   0.09685  -0.27109   0.15156   0.01981
  63   37632.4    265.7   0.082162456   0.71877   0.18612   0.76185   0.32204
  64   37850.0    264.2   0.042090714   0.36610  -0.57558  -0.12052  -0.14241
  65   37958.1    263.4   0.033252237   0.28840   0.38420   0.07058   0.36852
  66   38509.8    259.7   0.121934099   1.04239  -0.24117   0.99101   0.04600
  67   38636.8    258.8   0.046932170   0.39989  -0.19602   0.51183  -0.31543
  68   39020.6    256.3   0.018660210   0.15743   0.09345   0.20263  -0.32809
  69   39120.3    255.6   0.029675747   0.24973   0.12380  -0.25764  -0.40991
  70   39289.6    254.5   0.065788385   0.55125  -0.59408  -0.09515   0.43505
  71   39649.0    252.2   0.138227464   1.14773  -0.57060  -0.79963  -0.42747
  72   39685.2    252.0   0.152698453   1.26672  -1.01788   0.12402  -0.46396
  73   40069.8    249.6   0.002549082   0.02094  -0.00707  -0.13321  -0.05610
  74   40195.0    248.8   0.105606378   0.86495  -0.48856   0.70540   0.35872
  75   40288.8    248.2   0.045470506   0.37155  -0.49740  -0.35024  -0.03850

FINAL SINGLE POINT ENERGY     -3525.446558962249

DIPOLE MOMENT
-------------
                                X             Y             Z
Electronic contribution:     11.05295      15.89904      -3.34355
Nuclear contribution   :    -14.54048     -19.47497       1.92980
                        -----------------------------------------
Total Dipole Moment    :     -3.48753      -3.57593      -1.41375
                        -----------------------------------------
Magnitude (a.u.)       :      5.19122
Magnitude (Debye)      :     13.19504

Rotational constants in cm-1:     0.001056     0.000321     0.000257
Rotational constants in MHz :    31.647239     9.622962     7.709045

                             ****ORCA TERMINATED NORMALLY****
TOTAL RUN TIME: 0 days 0 hours 13 minutes 16 seconds 66 msec
