                         Program Version 4.2.0 -  RELEASE  -
|  1> # ORCA input file
|  2> # SCF done       -197.732939115567          0.000702489081
|  3> ! CAM-B3LYP def2-SVP def2/J RIJCOSX Grid4 TightSCF
|  4> %maxcore 5000
|  5> %tddft
|  6>     Mode sTDDFT
|  7>     Ethresh 5.0
|  8>     maxcore 5000
|  9> end
| 10>
| 11> %pal
| 12>   nprocs 6
| 13>   end
| 14> * xyz 0 1
| 15>    C        2.65354         3.20223        -8.51581
| 16>    C        1.69288         3.08972        -9.48022
| 17>    C        1.57561         1.99256       -10.36071
| 18>    N        1.43332         1.12514       -11.09802
| 19>    C        0.67389         4.04455        -9.68709
| 20>    N       -0.19022         4.77714        -9.86922
| 21>    C        3.68330         2.22568        -8.18989
| 22>    C        4.42543         2.68273        -7.05843
| 23>    C        5.45096         1.95217        -6.52807
| 24>    C        5.78990         0.71251        -7.11359
| 25>    C        5.05788         0.25225        -8.24720
| 26>    C        4.00139         1.02760        -8.77508
| 27>    C        5.40736        -0.98553        -8.82480
| 28>    C        6.42908        -1.73482        -8.30811
| 29>    C        7.14826        -1.28150        -7.19181
| 30>    C        6.83600        -0.08398        -6.60739
| 31>    C        3.90884         3.98786        -6.63244
| 32>    O        4.26336         4.68908        -5.70980
| 33>    C        2.81674         4.31494        -7.59197
| 34>    C        2.22075         5.52112        -7.56394
| 35>    C        2.59205         6.54301        -6.60140
| 36>    C        3.46084         7.56324        -6.89284
| 37>    N        4.14165         7.67492        -8.11408
| 38>    O        3.88045         6.84088        -8.97268
| 39>    O        4.93346         8.58549        -8.25371
| 40>    C        3.60144         8.44215        -5.74954
| 41>    C        2.76926         7.99979        -4.78687
| 42>    C        2.07766         6.80905        -5.25659
| 43>    C        1.15997         6.05228        -4.57488
| 44>    C        0.83822         4.67591        -4.83080
| 45>    C        0.25256         4.15429        -3.72493
| 46>    C        0.06479         5.20107        -2.75330
| 47>    N       -0.58589         4.97862        -1.52886
| 48>    O       -0.96224         3.84299        -1.29518
| 49>    O       -0.73542         5.91776        -0.76083
| 50>    C        0.53234         6.39999        -3.27556
| 51>    C        0.28069         7.69060        -2.75868
| 52>    C        0.20366         8.82035        -3.51427
| 53>    C       -0.13375        10.12701        -3.03792
| 54>    C       -0.42483        10.41073        -1.69134
| 55>    C       -0.77937        11.67598        -1.29648
| 56>    C       -0.85800        12.73144        -2.22075
| 57>    C       -0.53718        12.45516        -3.56081
| 58>    C       -0.19177        11.18873        -3.95931
| 59>    C       -1.27022        14.06464        -1.87803
| 60>    C       -1.72962        14.46765        -0.67086
| 61>    C       -2.18320        15.77880        -0.36622
| 62>    S       -2.80938        16.05219         1.24042
| 63>    C       -3.18936        17.72290         0.90409
| 64>    C       -2.83652        18.01238        -0.40944
| 65>    C       -2.27773        16.94059        -1.13000
| 66>    C       -1.95953        17.37039        -2.49634
| 67>    O       -1.49654        16.72018        -3.40295
| 68>    C       -2.33635        18.84219        -2.58022
| 69>    C       -2.96933        19.20864        -1.24771
| 70>    O       -3.49587        20.25496        -0.96530
| 71>    C       -3.73567        18.68645         1.78014
| 72>    C       -4.24980        18.51295         3.03055
| 73>    C       -4.83719        19.55177         3.86355
| 74>    C       -4.63744        20.89897         3.73957
| 75>    C       -5.23738        21.85985         4.58165
| 76>    N       -5.70791        22.68204         5.22929
| 77>    C       -3.74900        21.50172         2.82066
| 78>    N       -3.00258        22.05331         2.14626
| 79>    C       -5.59030        18.88858         4.92119
| 80>    C       -5.35148        17.48551         4.83499
| 81>    C       -4.47110        17.21243         3.69322
| 82>    O       -4.02854        16.13033         3.35274
| 83>    C       -5.90223        16.60231         5.71939
| 84>    C       -6.74202        17.09033         6.74446
| 85>    C       -6.99851        18.49003         6.82904
| 86>    C       -6.40823        19.38107         5.90302
| 87>    C       -7.84449        18.96354         7.85222
| 88>    C       -8.40763        18.09881         8.75128
| 89>    C       -8.15199        16.72184         8.66880
| 90>    C       -7.33704        16.22806         7.68642
| 91>    H        5.99797         2.31771        -5.67170
| 92>    H        3.46795         0.65542        -9.63549
| 93>    H        4.85070        -1.33015        -9.68370
| 94>    H        6.68905        -2.68156        -8.75696
| 95>    H        7.95123        -1.88590        -6.79756
| 96>    H        7.38670         0.27012        -5.74841
| 97>    H        1.47609         5.80058        -8.29946
| 98>    H        4.27876         9.27332        -5.72017
| 99>    H        2.66906         8.39798        -3.79693
|100>    H        1.12073         4.13654        -5.71129
|101>    H       -0.04939         3.13711        -3.55931
|102>    H        0.01621         7.72192        -1.71093
|103>    H        0.35973         8.74388        -4.58308
|104>    H       -0.38552         9.62239        -0.95624
|105>    H       -1.00153        11.85579        -0.25646
|106>    H       -0.57918        13.25744        -4.28254
|107>    H        0.04199        10.99532        -4.99632
|108>    H       -1.22678        14.78729        -2.68187
|109>    H       -1.79930        13.77299         0.15574
|110>    H       -3.01482        19.03280        -3.41402
|111>    H       -1.44679        19.45125        -2.75837
|112>    H       -3.77024        19.67934         1.34334
|113>    H       -5.70036        15.54469         5.63640
|114>    H       -6.62410        20.43408         5.99092
|115>    H       -8.03722        20.02444         7.91342
|116>    H       -9.05337        18.47173         9.53193
|117>    H       -8.60403        16.05439         9.38695
|118>    H       -7.13672        15.16893         7.61714
|119> *
|120>
|121>                          ****END OF INPUT****

CARTESIAN COORDINATES (ANGSTROEM)
---------------------------------
  C      2.653540    3.202230   -8.515810
  C      1.692880    3.089720   -9.480220
  C      1.575610    1.992560  -10.360710
  N      1.433320    1.125140  -11.098020
  C      0.673890    4.044550   -9.687090
  N     -0.190220    4.777140   -9.869220
  C      3.683300    2.225680   -8.189890
  C      4.425430    2.682730   -7.058430
  C      5.450960    1.952170   -6.528070
  C      5.789900    0.712510   -7.113590
  C      5.057880    0.252250   -8.247200
  C      4.001390    1.027600   -8.775080
  C      5.407360   -0.985530   -8.824800
  C      6.429080   -1.734820   -8.308110
  C      7.148260   -1.281500   -7.191810
  C      6.836000   -0.083980   -6.607390
  C      3.908840    3.987860   -6.632440
  O      4.263360    4.689080   -5.709800
  C      2.816740    4.314940   -7.591970
  C      2.220750    5.521120   -7.563940
  C      2.592050    6.543010   -6.601400
  C      3.460840    7.563240   -6.892840
  N      4.141650    7.674920   -8.114080
  O      3.880450    6.840880   -8.972680
  O      4.933460    8.585490   -8.253710
  C      3.601440    8.442150   -5.749540
  C      2.769260    7.999790   -4.786870
  C      2.077660    6.809050   -5.256590
  C      1.159970    6.052280   -4.574880
  C      0.838220    4.675910   -4.830800
  C      0.252560    4.154290   -3.724930
  C      0.064790    5.201070   -2.753300
  N     -0.585890    4.978620   -1.528860
  O     -0.962240    3.842990   -1.295180
  O     -0.735420    5.917760   -0.760830
  C      0.532340    6.399990   -3.275560
  C      0.280690    7.690600   -2.758680
  C      0.203660    8.820350   -3.514270
  C     -0.133750   10.127010   -3.037920
  C     -0.424830   10.410730   -1.691340
  C     -0.779370   11.675980   -1.296480
  C     -0.858000   12.731440   -2.220750
  C     -0.537180   12.455160   -3.560810
  C     -0.191770   11.188730   -3.959310
  C     -1.270220   14.064640   -1.878030
  C     -1.729620   14.467650   -0.670860
  C     -2.183200   15.778800   -0.366220
  S     -2.809380   16.052190    1.240420
  C     -3.189360   17.722900    0.904090
  C     -2.836520   18.012380   -0.409440
  C     -2.277730   16.940590   -1.130000
  C     -1.959530   17.370390   -2.496340
  O     -1.496540   16.720180   -3.402950
  C     -2.336350   18.842190   -2.580220
  C     -2.969330   19.208640   -1.247710
  O     -3.495870   20.254960   -0.965300
  C     -3.735670   18.686450    1.780140
  C     -4.249800   18.512950    3.030550
  C     -4.837190   19.551770    3.863550
  C     -4.637440   20.898970    3.739570
  C     -5.237380   21.859850    4.581650
  N     -5.707910   22.682040    5.229290
  C     -3.749000   21.501720    2.820660
  N     -3.002580   22.053310    2.146260
  C     -5.590300   18.888580    4.921190
  C     -5.351480   17.485510    4.834990
  C     -4.471100   17.212430    3.693220
  O     -4.028540   16.130330    3.352740
  C     -5.902230   16.602310    5.719390
  C     -6.742020   17.090330    6.744460
  C     -6.998510   18.490030    6.829040
  C     -6.408230   19.381070    5.903020
  C     -7.844490   18.963540    7.852220
  C     -8.407630   18.098810    8.751280
  C     -8.151990   16.721840    8.668800
  C     -7.337040   16.228060    7.686420
  H      5.997970    2.317710   -5.671700
  H      3.467950    0.655420   -9.635490
  H      4.850700   -1.330150   -9.683700
  H      6.689050   -2.681560   -8.756960
  H      7.951230   -1.885900   -6.797560
  H      7.386700    0.270120   -5.748410
  H      1.476090    5.800580   -8.299460
  H      4.278760    9.273320   -5.720170
  H      2.669060    8.397980   -3.796930
  H      1.120730    4.136540   -5.711290
  H     -0.049390    3.137110   -3.559310
  H      0.016210    7.721920   -1.710930
  H      0.359730    8.743880   -4.583080
  H     -0.385520    9.622390   -0.956240
  H     -1.001530   11.855790   -0.256460
  H     -0.579180   13.257440   -4.282540
  H      0.041990   10.995320   -4.996320
  H     -1.226780   14.787290   -2.681870
  H     -1.799300   13.772990    0.155740
  H     -3.014820   19.032800   -3.414020
  H     -1.446790   19.451250   -2.758370
  H     -3.770240   19.679340    1.343340
  H     -5.700360   15.544690    5.636400
  H     -6.624100   20.434080    5.990920
  H     -8.037220   20.024440    7.913420
  H     -9.053370   18.471730    9.531930
  H     -8.604030   16.054390    9.386950
  H     -7.136720   15.168930    7.617140

 Total Charge           Charge          ....    0
 Multiplicity           Mult            ....    1
 Number of Electrons    NEL             ....  516
 Basis Dimension        Dim             .... 1208

ORBITAL ENERGIES
----------------

  NO   OCC          E(Eh)            E(eV)
   0   2.0000     -88.984398     -2421.3886
   1   2.0000     -19.248714      -523.7841
   2   2.0000     -19.246005      -523.7104
   3   2.0000     -19.237321      -523.4741
   4   2.0000     -19.236375      -523.4484
   5   2.0000     -19.230865      -523.2984
   6   2.0000     -19.230002      -523.2749
   7   2.0000     -19.225038      -523.1399
   8   2.0000     -19.224652      -523.1294
   9   2.0000     -14.654398      -398.7664
  10   2.0000     -14.646331      -398.5469
  11   2.0000     -14.425792      -392.5458
  12   2.0000     -14.424765      -392.5178
  13   2.0000     -14.417174      -392.3113
  14   2.0000     -14.414074      -392.2269
  15   2.0000     -10.378723      -282.4194
  16   2.0000     -10.378083      -282.4020
  17   2.0000     -10.377493      -282.3859
  18   2.0000     -10.377091      -282.3750
  19   2.0000     -10.354573      -281.7623
  20   2.0000     -10.350995      -281.6649
  21   2.0000     -10.346012      -281.5293
  22   2.0000     -10.343063      -281.4490
  23   2.0000     -10.336864      -281.2804
  24   2.0000     -10.335741      -281.2498
  25   2.0000     -10.334895      -281.2268
  26   2.0000     -10.334740      -281.2226
  27   2.0000     -10.333186      -281.1803
  28   2.0000     -10.333086      -281.1776
  29   2.0000     -10.329671      -281.0846
  30   2.0000     -10.328586      -281.0551
  31   2.0000     -10.327548      -281.0269
  32   2.0000     -10.327451      -281.0242
  33   2.0000     -10.327298      -281.0201
  34   2.0000     -10.326604      -281.0012
  35   2.0000     -10.319425      -280.8058
  36   2.0000     -10.315571      -280.7010
  37   2.0000     -10.313298      -280.6391
  38   2.0000     -10.310204      -280.5549
  39   2.0000     -10.308387      -280.5055
  40   2.0000     -10.307490      -280.4811
  41   2.0000     -10.307306      -280.4761
  42   2.0000     -10.306770      -280.4615
  43   2.0000     -10.306717      -280.4600
  44   2.0000     -10.306496      -280.4540
  45   2.0000     -10.306249      -280.4473
  46   2.0000     -10.304168      -280.3907
  47   2.0000     -10.304019      -280.3866
  48   2.0000     -10.302700      -280.3507
  49   2.0000     -10.302052      -280.3331
  50   2.0000     -10.301773      -280.3255
  51   2.0000     -10.300627      -280.2943
  52   2.0000     -10.300295      -280.2853
  53   2.0000     -10.299644      -280.2676
  54   2.0000     -10.299085      -280.2523
  55   2.0000     -10.298895      -280.2472
  56   2.0000     -10.298756      -280.2434
  57   2.0000     -10.297757      -280.2162
  58   2.0000     -10.297199      -280.2010
  59   2.0000     -10.294495      -280.1274
  60   2.0000     -10.294370      -280.1240
  61   2.0000     -10.294254      -280.1209
  62   2.0000     -10.293917      -280.1117
  63   2.0000     -10.293661      -280.1048
  64   2.0000     -10.293167      -280.0913
  65   2.0000     -10.291954      -280.0583
  66   2.0000     -10.291620      -280.0492
  67   2.0000     -10.291103      -280.0352
  68   2.0000     -10.290752      -280.0256
  69   2.0000     -10.290489      -280.0184
  70   2.0000     -10.289982      -280.0046
  71   2.0000     -10.289611      -279.9945
  72   2.0000     -10.289025      -279.9786
  73   2.0000     -10.288553      -279.9658
  74   2.0000     -10.288507      -279.9645
  75   2.0000     -10.288489      -279.9640
  76   2.0000      -8.077481      -219.7994
  77   2.0000      -6.046741      -164.5402
  78   2.0000      -6.042080      -164.4134
  79   2.0000      -6.040158      -164.3610
  80   2.0000      -1.325536       -36.0697
  81   2.0000      -1.315804       -35.8048
  82   2.0000      -1.145629       -31.1741
  83   2.0000      -1.145344       -31.1664
  84   2.0000      -1.143727       -31.1224
  85   2.0000      -1.143522       -31.1168
  86   2.0000      -1.138742       -30.9868
  87   2.0000      -1.132852       -30.8265
  88   2.0000      -1.028286       -27.9811
  89   2.0000      -1.022539       -27.8247
  90   2.0000      -1.020846       -27.7786
  91   2.0000      -1.015418       -27.6309
  92   2.0000      -1.008051       -27.4305
  93   2.0000      -1.003787       -27.3144
  94   2.0000      -1.002391       -27.2764
  95   2.0000      -1.001626       -27.2556
  96   2.0000      -0.993825       -27.0434
  97   2.0000      -0.980222       -26.6732
  98   2.0000      -0.977814       -26.6077
  99   2.0000      -0.975626       -26.5481
 100   2.0000      -0.935487       -25.4559
 101   2.0000      -0.934579       -25.4312
 102   2.0000      -0.933615       -25.4050
 103   2.0000      -0.924649       -25.1610
 104   2.0000      -0.917501       -24.9665
 105   2.0000      -0.915537       -24.9130
 106   2.0000      -0.913624       -24.8610
 107   2.0000      -0.897887       -24.4327
 108   2.0000      -0.891284       -24.2531
 109   2.0000      -0.888329       -24.1727
 110   2.0000      -0.885440       -24.0940
 111   2.0000      -0.882330       -24.0094
 112   2.0000      -0.880624       -23.9630
 113   2.0000      -0.858611       -23.3640
 114   2.0000      -0.855348       -23.2752
 115   2.0000      -0.840003       -22.8576
 116   2.0000      -0.837413       -22.7872
 117   2.0000      -0.833296       -22.6751
 118   2.0000      -0.832300       -22.6480
 119   2.0000      -0.827984       -22.5306
 120   2.0000      -0.816497       -22.2180
 121   2.0000      -0.800061       -21.7708
 122   2.0000      -0.784261       -21.3408
 123   2.0000      -0.778949       -21.1963
 124   2.0000      -0.771524       -20.9942
 125   2.0000      -0.766549       -20.8589
 126   2.0000      -0.750429       -20.4202
 127   2.0000      -0.732436       -19.9306
 128   2.0000      -0.731779       -19.9127
 129   2.0000      -0.723025       -19.6745
 130   2.0000      -0.720566       -19.6076
 131   2.0000      -0.712825       -19.3969
 132   2.0000      -0.712469       -19.3873
 133   2.0000      -0.707743       -19.2587
 134   2.0000      -0.704702       -19.1759
 135   2.0000      -0.703814       -19.1518
 136   2.0000      -0.698763       -19.0143
 137   2.0000      -0.686534       -18.6815
 138   2.0000      -0.684023       -18.6132
 139   2.0000      -0.678359       -18.4591
 140   2.0000      -0.674100       -18.3432
 141   2.0000      -0.668617       -18.1940
 142   2.0000      -0.656315       -17.8592
 143   2.0000      -0.653460       -17.7816
 144   2.0000      -0.644657       -17.5420
 145   2.0000      -0.641556       -17.4576
 146   2.0000      -0.640239       -17.4218
 147   2.0000      -0.638060       -17.3625
 148   2.0000      -0.637938       -17.3592
 149   2.0000      -0.628502       -17.1024
 150   2.0000      -0.627622       -17.0785
 151   2.0000      -0.622541       -16.9402
 152   2.0000      -0.620083       -16.8733
 153   2.0000      -0.618836       -16.8394
 154   2.0000      -0.615665       -16.7531
 155   2.0000      -0.611230       -16.6324
 156   2.0000      -0.607561       -16.5326
 157   2.0000      -0.600214       -16.3327
 158   2.0000      -0.593055       -16.1379
 159   2.0000      -0.585811       -15.9407
 160   2.0000      -0.583231       -15.8705
 161   2.0000      -0.579986       -15.7822
 162   2.0000      -0.571863       -15.5612
 163   2.0000      -0.571135       -15.5414
 164   2.0000      -0.567128       -15.4323
 165   2.0000      -0.565604       -15.3909
 166   2.0000      -0.563575       -15.3357
 167   2.0000      -0.556927       -15.1547
 168   2.0000      -0.555314       -15.1109
 169   2.0000      -0.552190       -15.0258
 170   2.0000      -0.550901       -14.9908
 171   2.0000      -0.549924       -14.9642
 172   2.0000      -0.546162       -14.8618
 173   2.0000      -0.545682       -14.8488
 174   2.0000      -0.543950       -14.8016
 175   2.0000      -0.543392       -14.7864
 176   2.0000      -0.539667       -14.6851
 177   2.0000      -0.537174       -14.6173
 178   2.0000      -0.534305       -14.5392
 179   2.0000      -0.533181       -14.5086
 180   2.0000      -0.530666       -14.4402
 181   2.0000      -0.526024       -14.3138
 182   2.0000      -0.521510       -14.1910
 183   2.0000      -0.520595       -14.1661
 184   2.0000      -0.519554       -14.1378
 185   2.0000      -0.517139       -14.0721
 186   2.0000      -0.514927       -14.0119
 187   2.0000      -0.513735       -13.9794
 188   2.0000      -0.512258       -13.9392
 189   2.0000      -0.510135       -13.8815
 190   2.0000      -0.507741       -13.8163
 191   2.0000      -0.506254       -13.7759
 192   2.0000      -0.504052       -13.7159
 193   2.0000      -0.502297       -13.6682
 194   2.0000      -0.499558       -13.5937
 195   2.0000      -0.497522       -13.5383
 196   2.0000      -0.496741       -13.5170
 197   2.0000      -0.492513       -13.4020
 198   2.0000      -0.491260       -13.3679
 199   2.0000      -0.487697       -13.2709
 200   2.0000      -0.487122       -13.2553
 201   2.0000      -0.486153       -13.2289
 202   2.0000      -0.482945       -13.1416
 203   2.0000      -0.476969       -12.9790
 204   2.0000      -0.474167       -12.9027
 205   2.0000      -0.470298       -12.7975
 206   2.0000      -0.468375       -12.7451
 207   2.0000      -0.464294       -12.6341
 208   2.0000      -0.457806       -12.4575
 209   2.0000      -0.453786       -12.3481
 210   2.0000      -0.452686       -12.3182
 211   2.0000      -0.449899       -12.2424
 212   2.0000      -0.449878       -12.2418
 213   2.0000      -0.448148       -12.1947
 214   2.0000      -0.446088       -12.1387
 215   2.0000      -0.443136       -12.0583
 216   2.0000      -0.442347       -12.0369
 217   2.0000      -0.441905       -12.0248
 218   2.0000      -0.440771       -11.9940
 219   2.0000      -0.437919       -11.9164
 220   2.0000      -0.436902       -11.8887
 221   2.0000      -0.436138       -11.8679
 222   2.0000      -0.433661       -11.8005
 223   2.0000      -0.433050       -11.7839
 224   2.0000      -0.428884       -11.6705
 225   2.0000      -0.426211       -11.5978
 226   2.0000      -0.424799       -11.5594
 227   2.0000      -0.419123       -11.4049
 228   2.0000      -0.418241       -11.3809
 229   2.0000      -0.415487       -11.3060
 230   2.0000      -0.411520       -11.1980
 231   2.0000      -0.407953       -11.1010
 232   2.0000      -0.395162       -10.7529
 233   2.0000      -0.392762       -10.6876
 234   2.0000      -0.386552       -10.5186
 235   2.0000      -0.384925       -10.4743
 236   2.0000      -0.384046       -10.4504
 237   2.0000      -0.381279       -10.3751
 238   2.0000      -0.376648       -10.2491
 239   2.0000      -0.375235       -10.2107
 240   2.0000      -0.364248        -9.9117
 241   2.0000      -0.362172        -9.8552
 242   2.0000      -0.358267        -9.7489
 243   2.0000      -0.357034        -9.7154
 244   2.0000      -0.350590        -9.5400
 245   2.0000      -0.346522        -9.4293
 246   2.0000      -0.344565        -9.3761
 247   2.0000      -0.342185        -9.3113
 248   2.0000      -0.338215        -9.2033
 249   2.0000      -0.331784        -9.0283
 250   2.0000      -0.329221        -8.9586
 251   2.0000      -0.324727        -8.8363
 252   2.0000      -0.321361        -8.7447
 253   2.0000      -0.312933        -8.5154
 254   2.0000      -0.301925        -8.2158
 255   2.0000      -0.300087        -8.1658
 256   2.0000      -0.290719        -7.9109
 257   2.0000      -0.263760        -7.1773
 258   0.0000      -0.129751        -3.5307
 259   0.0000      -0.105019        -2.8577
 260   0.0000      -0.094952        -2.5838
 261   0.0000      -0.072352        -1.9688
 262   0.0000      -0.065391        -1.7794

MULLIKEN ATOMIC CHARGES
-----------------------
   0 C :    0.336028
   1 C :   -0.331395
   2 C :   -0.184492
   3 N :    0.160488
   4 C :   -0.203304
   5 N :    0.168714
   6 C :    0.047156
   7 C :   -0.011904
   8 C :   -0.068035
   9 C :    0.095707
  10 C :    0.096250
  11 C :   -0.081053
  12 C :   -0.018123
  13 C :    0.040350
  14 C :    0.036751
  15 C :   -0.013303
  16 C :    0.151871
  17 O :   -0.138550
  18 C :   -0.064696
  19 C :   -0.070083
  20 C :    0.018340
  21 C :    0.101064
  22 N :    0.270338
  23 O :   -0.247808
  24 O :   -0.234120
  25 C :    0.019248
  26 C :   -0.002735
  27 C :    0.068643
  28 C :    0.020439
  29 C :    0.014541
  30 C :    0.031098
  31 C :    0.081163
  32 N :    0.271093
  33 O :   -0.249068
  34 O :   -0.258035
  35 C :    0.028167
  36 C :   -0.026697
  37 C :    0.003246
  38 C :    0.084487
  39 C :    0.004164
  40 C :   -0.003652
  41 C :    0.104407
  42 C :   -0.015084
  43 C :   -0.003304
  44 C :   -0.001837
  45 C :    0.063126
  46 C :   -0.117775
  47 S :    0.227028
  48 C :   -0.117057
  49 C :    0.021009
  50 C :    0.032171
  51 C :    0.031547
  52 O :   -0.155821
  53 C :    0.073380
  54 C :    0.030022
  55 O :   -0.131301
  56 C :   -0.053201
  57 C :   -0.083005
  58 C :    0.301672
  59 C :   -0.325052
  60 C :   -0.182802
  61 N :    0.150433
  62 C :   -0.212151
  63 N :    0.178103
  64 C :    0.049571
  65 C :    0.000300
  66 C :    0.172008
  67 O :   -0.178933
  68 C :   -0.080399
  69 C :    0.097347
  70 C :    0.096938
  71 C :   -0.083460
  72 C :   -0.019027
  73 C :    0.038166
  74 C :    0.035986
  75 C :   -0.016533
  76 H :   -0.010403
  77 H :   -0.006237
  78 H :   -0.006889
  79 H :   -0.001751
  80 H :   -0.001049
  81 H :   -0.014608
  82 H :    0.057479
  83 H :   -0.001080
  84 H :    0.006850
  85 H :   -0.016263
  86 H :    0.008120
  87 H :    0.025212
  88 H :    0.012204
  89 H :   -0.009075
  90 H :   -0.017363
  91 H :    0.000258
  92 H :   -0.014746
  93 H :    0.001948
  94 H :   -0.019773
  95 H :    0.065438
  96 H :    0.076931
  97 H :    0.043234
  98 H :   -0.011690
  99 H :   -0.005535
 100 H :   -0.007246
 101 H :   -0.002996
 102 H :   -0.003409
 103 H :   -0.016324
Sum of atomic charges:   -0.0000000

LOEWDIN ATOMIC CHARGES
----------------------
   0 C :    0.075460
   1 C :   -0.124591
   2 C :   -0.017312
   3 N :   -0.042829
   4 C :   -0.017453
   5 N :   -0.042523
   6 C :   -0.024648
   7 C :   -0.058629
   8 C :    0.038039
   9 C :   -0.007376
  10 C :   -0.004268
  11 C :    0.023528
  12 C :   -0.003841
  13 C :   -0.009158
  14 C :   -0.008901
  15 C :   -0.007403
  16 C :    0.085386
  17 O :   -0.130695
  18 C :   -0.078322
  19 C :    0.083789
  20 C :    0.016234
  21 C :   -0.032195
  22 N :    0.287391
  23 O :   -0.209798
  24 O :   -0.197982
  25 C :   -0.000968
  26 C :   -0.027271
  27 C :    0.033489
  28 C :    0.050891
  29 C :   -0.046107
  30 C :    0.030164
  31 C :   -0.056910
  32 N :    0.285844
  33 O :   -0.213704
  34 O :   -0.223494
  35 C :    0.026015
  36 C :   -0.026904
  37 C :    0.028503
  38 C :   -0.030274
  39 C :    0.003156
  40 C :   -0.003066
  41 C :   -0.018240
  42 C :   -0.003383
  43 C :   -0.003318
  44 C :    0.024893
  45 C :   -0.052794
  46 C :   -0.123464
  47 S :    0.544271
  48 C :   -0.169379
  49 C :   -0.061483
  50 C :   -0.103961
  51 C :    0.083932
  52 O :   -0.136029
  53 C :   -0.065774
  54 C :    0.078719
  55 O :   -0.117325
  56 C :    0.058334
  57 C :   -0.090068
  58 C :    0.072092
  59 C :   -0.128493
  60 C :   -0.016430
  61 N :   -0.049405
  62 C :   -0.028662
  63 N :   -0.034527
  64 C :   -0.023573
  65 C :   -0.057283
  66 C :    0.086919
  67 O :   -0.165395
  68 C :    0.034355
  69 C :   -0.009019
  70 C :   -0.004606
  71 C :    0.019736
  72 C :   -0.005055
  73 C :   -0.011094
  74 C :   -0.011598
  75 C :   -0.008877
  76 H :    0.040730
  77 H :    0.040108
  78 H :    0.035790
  79 H :    0.034675
  80 H :    0.034432
  81 H :    0.033060
  82 H :    0.054883
  83 H :    0.038773
  84 H :    0.033602
  85 H :    0.027136
  86 H :    0.039753
  87 H :    0.035403
  88 H :    0.034010
  89 H :    0.034956
  90 H :    0.030537
  91 H :    0.037532
  92 H :    0.032247
  93 H :    0.032652
  94 H :    0.025683
  95 H :    0.061933
  96 H :    0.067459
  97 H :    0.055321
  98 H :    0.039304
  99 H :    0.039689
 100 H :    0.035424
 101 H :    0.033965
 102 H :    0.033486
 103 H :    0.032174

  Mayer bond orders larger than 0.100000
B(  0-C ,  1-C ) :   1.6819 B(  0-C ,  6-C ) :   1.0057 B(  0-C , 18-C ) :   0.9978
B(  1-C ,  2-C ) :   1.1339 B(  1-C ,  4-C ) :   1.1550 B(  2-C ,  3-N ) :   2.9708
B(  4-C ,  5-N ) :   2.9766 B(  6-C ,  7-C ) :   1.2081 B(  6-C , 11-C ) :   1.4430
B(  7-C ,  8-C ) :   1.4694 B(  7-C , 16-C ) :   0.9502 B(  8-C ,  9-C ) :   1.1829
B(  8-C , 76-H ) :   1.0164 B(  9-C , 10-C ) :   1.2541 B(  9-C , 15-C ) :   1.2415
B( 10-C , 11-C ) :   1.2107 B( 10-C , 12-C ) :   1.2371 B( 11-C , 77-H ) :   0.9905
B( 12-C , 13-C ) :   1.4915 B( 12-C , 78-H ) :   0.9980 B( 13-C , 14-C ) :   1.2583
B( 13-C , 79-H ) :   0.9884 B( 14-C , 15-C ) :   1.4888 B( 14-C , 80-H ) :   0.9893
B( 15-C , 81-H ) :   0.9985 B( 16-C , 17-O ) :   2.2130 B( 16-C , 18-C ) :   0.9214
B( 18-C , 19-C ) :   1.7547 B( 19-C , 20-C ) :   0.9755 B( 19-C , 23-O ) :   0.1150
B( 19-C , 82-H ) :   0.9312 B( 20-C , 21-C ) :   1.6394 B( 20-C , 27-C ) :   1.0551
B( 21-C , 22-N ) :   0.9374 B( 21-C , 25-C ) :   1.1004 B( 22-N , 23-O ) :   1.4919
B( 22-N , 24-O ) :   1.5390 B( 23-O , 24-O ) :   0.2629 B( 25-C , 26-C ) :   1.6401
B( 25-C , 83-H ) :   1.0167 B( 26-C , 27-C ) :   1.0870 B( 26-C , 84-H ) :   0.9909
B( 27-C , 28-C ) :   1.5429 B( 28-C , 29-C ) :   1.1272 B( 28-C , 35-C ) :   0.9828
B( 29-C , 30-C ) :   1.5833 B( 29-C , 85-H ) :   1.0021 B( 30-C , 31-C ) :   1.1236
B( 30-C , 86-H ) :   1.0098 B( 31-C , 32-N ) :   0.9574 B( 31-C , 35-C ) :   1.5140
B( 32-N , 33-O ) :   1.5354 B( 32-N , 34-O ) :   1.4913 B( 33-O , 34-O ) :   0.2557
B( 35-C , 36-C ) :   1.1976 B( 36-C , 37-C ) :   1.5693 B( 36-C , 87-H ) :   0.9437
B( 37-C , 38-C ) :   1.1175 B( 37-C , 88-H ) :   0.9779 B( 38-C , 39-C ) :   1.3047
B( 38-C , 43-C ) :   1.3117 B( 39-C , 40-C ) :   1.4522 B( 39-C , 89-H ) :   0.9886
B( 40-C , 41-C ) :   1.3020 B( 40-C , 90-H ) :   0.9875 B( 41-C , 42-C ) :   1.3202
B( 41-C , 44-C ) :   1.0925 B( 42-C , 43-C ) :   1.3881 B( 42-C , 91-H ) :   1.0019
B( 43-C , 92-H ) :   0.9995 B( 44-C , 45-C ) :   1.6473 B( 44-C , 93-H ) :   0.9604
B( 45-C , 46-C ) :   1.1632 B( 45-C , 94-H ) :   0.9466 B( 46-C , 47-S ) :   1.1630
B( 46-C , 50-C ) :   1.3679 B( 47-S , 48-C ) :   1.1087 B( 48-C , 49-C ) :   1.4176
B( 48-C , 56-C ) :   1.2235 B( 49-C , 50-C ) :   1.2663 B( 49-C , 54-C ) :   0.9341
B( 50-C , 51-C ) :   0.9470 B( 51-C , 52-O ) :   2.1407 B( 51-C , 53-C ) :   1.0062
B( 52-O , 93-H ) :   0.1174 B( 53-C , 54-C ) :   0.9992 B( 53-C , 95-H ) :   0.8968
B( 53-C , 96-H ) :   0.8936 B( 54-C , 55-O ) :   2.2031 B( 56-C , 57-C ) :   1.5499
B( 56-C , 97-H ) :   0.9418 B( 57-C , 58-C ) :   1.0443 B( 57-C , 66-C ) :   0.9675
B( 58-C , 59-C ) :   1.6612 B( 58-C , 64-C ) :   0.9926 B( 59-C , 60-C ) :   1.1421
B( 59-C , 62-C ) :   1.1351 B( 60-C , 61-N ) :   2.9705 B( 62-C , 63-N ) :   3.0078
B( 64-C , 65-C ) :   1.2135 B( 64-C , 71-C ) :   1.4559 B( 65-C , 66-C ) :   0.9620
B( 65-C , 68-C ) :   1.4640 B( 66-C , 67-O ) :   2.1301 B( 68-C , 69-C ) :   1.1831
B( 68-C , 98-H ) :   1.0169 B( 69-C , 70-C ) :   1.2548 B( 69-C , 75-C ) :   1.2431
B( 70-C , 71-C ) :   1.2037 B( 70-C , 72-C ) :   1.2420 B( 71-C , 99-H ) :   0.9910
B( 72-C , 73-C ) :   1.4885 B( 72-C ,100-H ) :   0.9974 B( 73-C , 74-C ) :   1.2604
B( 73-C ,101-H ) :   0.9884 B( 74-C , 75-C ) :   1.4893 B( 74-C ,102-H ) :   0.9886
B( 75-C ,103-H ) :   0.9978

-----------------------------------------------------------------------------
         ABSORPTION SPECTRUM VIA TRANSITION ELECTRIC DIPOLE MOMENTS
-----------------------------------------------------------------------------
State   Energy  Wavelength   fosc         T2         TX        TY        TZ
        (cm-1)    (nm)                  (au**2)     (au)      (au)      (au)
-----------------------------------------------------------------------------
   0   12741.9    784.8   0.447251377  11.55558   1.33023  -2.73240  -1.52318
   1   18708.7    534.5   0.063982995   1.12589  -0.44754   0.78555   0.55544
   2   19891.6    502.7   1.249498384  20.67960   1.65537  -3.23378  -2.73533
   3   22226.0    449.9   0.039695910   0.58798   0.15135   0.59093  -0.46462
   4   22918.6    436.3   0.002618874   0.03762   0.10539   0.05968   0.15149
   5   23795.7    420.2   0.003624921   0.05015  -0.01470   0.16584  -0.14977
   6   25263.1    395.8   0.102505676   1.33579  -0.59620   0.95831   0.24897
   7   25671.4    389.5   0.006051271   0.07760  -0.14155   0.23986   0.00554
   8   26026.6    384.2   0.251577291   3.18222   0.10085  -1.72498   0.44327
   9   26377.0    379.1   0.007650162   0.09548  -0.03488   0.02770  -0.30577
  10   26645.7    375.3   0.002558085   0.03161   0.01879  -0.17024   0.04766
  11   27663.7    361.5   0.021562240   0.25660  -0.19918  -0.13317   0.44631
  12   27747.4    360.4   0.008981695   0.10656   0.17676   0.27253   0.03235
  13   27803.3    359.7   0.102306755   1.21139   0.72912  -0.78545   0.25067
  14   28364.4    352.6   0.016677552   0.19357   0.22075   0.02688  -0.37962
  15   28408.1    352.0   0.024950420   0.28914  -0.12119  -0.46823   0.23498
  16   28830.4    346.9   0.032248444   0.36824   0.18681  -0.32736  -0.47558
  17   29028.5    344.5   0.046555556   0.52799   0.37265  -0.61324   0.11423
  18   29412.8    340.0   0.176141248   1.97151  -0.14347  -1.38431   0.18602
  19   29701.6    336.7   0.088346348   0.97923   0.60428  -0.03002  -0.78306
  20   29740.5    336.2   0.067294252   0.74491   0.29331   0.34406  -0.73519
  21   29803.4    335.5   0.087402600   0.96546  -0.30118  -0.87251   0.33686
  22   29998.8    333.3   0.010521314   0.11546   0.23037   0.00936   0.24961
  23   30150.7    331.7   0.028101217   0.30683  -0.10597  -0.25364   0.48091
  24   31014.4    322.4   0.086077413   0.91369  -0.60709  -0.11530   0.72927
  25   31180.4    320.7   0.000958635   0.01012   0.04000   0.01772  -0.09059
  26   31429.7    318.2   0.049574970   0.51927   0.27335   0.45153  -0.49059
  27   31511.3    317.3   0.030573487   0.31941   0.28275  -0.24049  -0.42618
  28   31823.2    314.2   0.473667419   4.90010   1.38849   0.45703  -1.66232
  29   32719.1    305.6   0.465425724   4.68301  -1.23336  -0.65486   1.65317
  30   32855.7    304.4   0.172633371   1.72977  -0.56411  -1.04858   0.55859
  31   32969.2    303.3   0.011823820   0.11807  -0.04136   0.00252   0.34110
  32   33690.3    296.8   0.084684871   0.82752   0.87187   0.21698   0.14243
  33   33783.7    296.0   0.380679583   3.70961   1.63817  -0.21690   0.98943
  34   34212.5    292.3   0.273195373   2.62884   0.18545  -1.56489   0.38155
  35   34350.4    291.1   0.154234113   1.47817   0.97013   0.41660  -0.60287
  36   34472.3    290.1   0.025657906   0.24503   0.32444   0.33890  -0.15784
  37   34845.0    287.0   0.032571571   0.30773   0.51540  -0.15511   0.13428
  38   35007.7    285.7   0.129273785   1.21569  -0.85749   0.56975  -0.39469
  39   35061.2    285.2   0.333393653   3.13045  -1.01767   1.34884  -0.52481
  40   35217.2    284.0   0.349038828   3.26283  -0.56843   1.67302  -0.37512
  41   35532.6    281.4   0.123518274   1.14441  -0.55974  -0.49899   0.76296
  42   35737.6    279.8   0.013203139   0.12163  -0.01336   0.27978  -0.20777
  43   35944.7    278.2   0.019696034   0.18039   0.19059  -0.07384  -0.37231
  44   36042.2    277.5   0.002162461   0.01975   0.08423  -0.06566  -0.09135
  45   36292.0    275.5   0.019559835   0.17743  -0.18796   0.19884  -0.32025
  46   36503.3    273.9   0.258622712   2.33244   0.68109   0.88601  -1.04093
  47   36657.7    272.8   0.052639877   0.47274   0.47625   0.07114  -0.49078
  48   36815.1    271.6   0.005901194   0.05277  -0.17617   0.04572   0.14015
  49   37079.0    269.7   0.066865549   0.59368  -0.11368  -0.61068   0.45588
  50   37349.1    267.7   0.001402777   0.01236   0.08476   0.07196  -0.00180
  51   37911.0    263.8   0.014681741   0.12749   0.05555   0.27427   0.22178
  52   38038.4    262.9   0.002411228   0.02087   0.04272  -0.13793   0.00443
  53   38149.8    262.1   0.032832561   0.28333  -0.16903  -0.40107   0.30643
  54   38233.0    261.6   0.106816156   0.91976  -0.26182   0.53841   0.74922
  55   38622.4    258.9   0.079465004   0.67735  -0.57244   0.58947   0.04682
  56   38702.3    258.4   0.058543164   0.49798  -0.03642   0.70054   0.07680
  57   38839.9    257.5   0.249282352   2.11295   0.42476  -1.06501  -0.89346
  58   39000.2    256.4   0.143658195   1.21266  -0.39404  -0.66038   0.78822
  59   39172.6    255.3   0.028712827   0.24131  -0.43686   0.20275  -0.09672
  60   39310.8    254.4   0.016004487   0.13403  -0.02030   0.20960  -0.29948
  61   39468.6    253.4   0.092419736   0.77088   0.00655   0.68927  -0.54383
  62   39714.6    251.8   0.112791557   0.93498  -0.12336  -0.86529  -0.41357
  63   39816.7    251.2   0.027005579   0.22329  -0.13086   0.40418   0.20689
  64   40035.1    249.8   0.031857494   0.26197   0.22316  -0.39452  -0.23774
  65   40129.2    249.2   0.133968316   1.09905  -0.10646   0.67615   0.79406
  66   40295.9    248.2   0.109752981   0.89667  -0.42250  -0.71030   0.46221

FINAL SINGLE POINT ENERGY     -3665.287370142894

DIPOLE MOMENT
-------------
                                X             Y             Z
Electronic contribution:     -2.41194      14.66349      -8.52069
Nuclear contribution   :      3.12246     -17.32659      10.59906
                        -----------------------------------------
Total Dipole Moment    :      0.71052      -2.66310       2.07837
                        -----------------------------------------
Magnitude (a.u.)       :      3.45204
Magnitude (Debye)      :      8.77438

Rotational constants in cm-1:     0.002065     0.000192     0.000182
Rotational constants in MHz :    61.902227     5.761555     5.443267

                             ****ORCA TERMINATED NORMALLY****
TOTAL RUN TIME: 0 days 0 hours 11 minutes 2 seconds 201 msec
