                         Program Version 4.2.0 -  RELEASE  -
|  1> # ORCA input file
|  2> # SCF done       -193.062852905627          0.000398208084
|  3> ! CAM-B3LYP def2-SVP def2/J RIJCOSX Grid4 TightSCF
|  4> %maxcore 5000
|  5> %tddft
|  6>     Mode sTDDFT
|  7>     Ethresh 5.0
|  8>     maxcore 5000
|  9> end
| 10>
| 11> %pal
| 12>   nprocs 6
| 13>   end
| 14> * xyz 0 1
| 15>    C       -1.34062         5.65463        -2.13774
| 16>    C       -0.68266         5.09031        -3.19624
| 17>    C       -0.78514         5.56198        -4.52294
| 18>    N       -0.83022         5.90723        -5.61616
| 19>    C        0.11363         3.92938        -3.12145
| 20>    N        0.73538         2.96478        -3.14192
| 21>    C       -2.32662         6.72486        -2.23649
| 22>    C       -3.11857         6.73282        -1.05042
| 23>    C       -4.15091         7.61082        -0.88157
| 24>    C       -4.43705         8.54272        -1.90370
| 25>    C       -3.63638         8.55392        -3.08307
| 26>    C       -2.57680         7.63093        -3.23285
| 27>    C       -3.92691         9.49457        -4.09232
| 28>    C       -4.96058        10.37916        -3.94763
| 29>    C       -5.74939        10.36616        -2.78723
| 30>    C       -5.49335         9.46782        -1.78719
| 31>    C       -2.62068         5.70344        -0.12609
| 32>    O       -3.06707         5.37275         0.94675
| 33>    C       -1.37916         5.16458        -0.76845
| 34>    C       -0.52152         4.44412        -0.01363
| 35>    C        0.85606         4.09326        -0.27792
| 36>    C        1.40802         2.91120         0.30285
| 37>    C        2.73936         2.61515         0.13946
| 38>    C        3.57247         3.45815        -0.61672
| 39>    C        3.03510         4.65410        -1.16946
| 40>    C        1.67773         4.95110        -0.97893
| 41>    N        3.81578         5.50722        -1.86791
| 42>    C        5.06707         5.17310        -2.02114
| 43>    C        5.59563         3.97325        -1.49261
| 44>    N        4.86922         3.13670        -0.80485
| 45>    C        0.59914         2.03129         1.14041
| 46>    N       -0.57314         1.42354         0.77828
| 47>    C       -1.12990         1.33479        -0.54996
| 48>    C       -0.27860         0.45302        -1.45656
| 49>    C       -1.10647         0.65697         1.83985
| 50>    O       -2.13273         0.01165         1.74356
| 51>    C       -0.18052         0.85510         2.92599
| 52>    C        0.87138         1.69164         2.44777
| 53>    C        1.79855         1.91808         3.53515
| 54>    O        2.82802         2.55100         3.61487
| 55>    N        1.24914         1.18339         4.60594
| 56>    C        1.87666         1.18587         5.90462
| 57>    C        1.20521         2.16885         6.86106
| 58>    C        0.06930         0.56140         4.26130
| 59>    C       -0.70353        -0.21447         5.16430
| 60>    C       -1.87412        -0.79512         4.79801
| 61>    C       -2.71108        -1.54740         5.66337
| 62>    S       -4.19411        -2.21555         5.04926
| 63>    C       -4.61665        -2.88332         6.59263
| 64>    C       -3.62257        -2.58995         7.53538
| 65>    C       -2.56080        -1.84456         7.00544
| 66>    C       -3.63669        -2.96737         8.88933
| 67>    N       -3.58692        -3.24040        10.00290
| 68>    C       -5.84856        -3.56967         6.72182
| 69>    C       -6.31696        -4.15025         7.85750
| 70>    C       -7.56425        -4.81269         7.99118
| 71>    C       -8.72889        -4.60119         7.30766
| 72>    C       -9.94076        -5.38358         7.49127
| 73>    C      -10.01527        -6.64654         8.01803
| 74>    C      -11.21688        -7.37208         8.15635
| 75>    N      -12.16174        -8.00784         8.30110
| 76>    C       -8.91073        -7.41201         8.44863
| 77>    N       -8.06351        -8.10731         8.79113
| 78>    C      -11.05373        -4.63257         6.92618
| 79>    C      -10.53672        -3.45112         6.32417
| 80>    C       -9.07349        -3.40618         6.48871
| 81>    O       -8.33722        -2.53723         6.07213
| 82>    C      -11.34391        -2.54757         5.69515
| 83>    C      -12.73445        -2.78994         5.63891
| 84>    C      -13.26182        -3.96559         6.24741
| 85>    C      -12.40020        -4.88246         6.89252
| 86>    C      -14.65156        -4.19488         6.18832
| 87>    C      -15.48115        -3.30910         5.55615
| 88>    C      -14.96041        -2.15307         4.95559
| 89>    C      -13.61630        -1.89903         4.99613
| 90>    H       -4.74208         7.59416         0.02192
| 91>    H       -1.97988         7.67025        -4.13050
| 92>    H       -3.31908         9.49835        -4.98509
| 93>    H       -5.17693        11.09400        -4.72720
| 94>    H       -6.56064        11.07185        -2.68983
| 95>    H       -6.09704         9.45331        -0.89163
| 96>    H       -0.90583         4.15486         0.96118
| 97>    H        3.17016         1.73194         0.58362
| 98>    H        1.30816         5.89074        -1.36138
| 99>    H        5.68745         5.85931        -2.58179
|100>    H        6.63233         3.70504        -1.64545
|101>    H       -1.22734         2.33486        -0.98044
|102>    H       -2.12641         0.90149        -0.42516
|103>    H        0.70188         0.89665        -1.61094
|104>    H       -0.76138         0.35048        -2.42389
|105>    H       -0.16008        -0.53461        -1.01671
|106>    H        2.91330         1.49176         5.73684
|107>    H        1.87154         0.17277         6.31676
|108>    H        1.26639         3.17639         6.45738
|109>    H        1.70907         2.14906         7.82347
|110>    H        0.15649         1.91942         7.00812
|111>    H       -0.33368        -0.32684         6.17251
|112>    H       -2.22361        -0.67765         3.78060
|113>    H       -1.71923        -1.53432         7.59874
|114>    H       -6.43349        -3.62507         5.81623
|115>    H       -5.68245        -4.17792         8.73331
|116>    H       -7.59387        -5.54468         8.79076
|117>    H      -10.92532        -1.66054         5.24312
|118>    H      -12.83030        -5.75966         7.34927
|119>    H      -15.04773        -5.08717         6.65048
|120>    H      -16.54398        -3.49474         5.51487
|121>    H      -15.62952        -1.46495         4.46088
|122>    H      -13.20914        -1.01065         4.53569
|123> *
|124>
|125>                          ****END OF INPUT****

CARTESIAN COORDINATES (ANGSTROEM)
---------------------------------
  C     -1.340620    5.654630   -2.137740
  C     -0.682660    5.090310   -3.196240
  C     -0.785140    5.561980   -4.522940
  N     -0.830220    5.907230   -5.616160
  C      0.113630    3.929380   -3.121450
  N      0.735380    2.964780   -3.141920
  C     -2.326620    6.724860   -2.236490
  C     -3.118570    6.732820   -1.050420
  C     -4.150910    7.610820   -0.881570
  C     -4.437050    8.542720   -1.903700
  C     -3.636380    8.553920   -3.083070
  C     -2.576800    7.630930   -3.232850
  C     -3.926910    9.494570   -4.092320
  C     -4.960580   10.379160   -3.947630
  C     -5.749390   10.366160   -2.787230
  C     -5.493350    9.467820   -1.787190
  C     -2.620680    5.703440   -0.126090
  O     -3.067070    5.372750    0.946750
  C     -1.379160    5.164580   -0.768450
  C     -0.521520    4.444120   -0.013630
  C      0.856060    4.093260   -0.277920
  C      1.408020    2.911200    0.302850
  C      2.739360    2.615150    0.139460
  C      3.572470    3.458150   -0.616720
  C      3.035100    4.654100   -1.169460
  C      1.677730    4.951100   -0.978930
  N      3.815780    5.507220   -1.867910
  C      5.067070    5.173100   -2.021140
  C      5.595630    3.973250   -1.492610
  N      4.869220    3.136700   -0.804850
  C      0.599140    2.031290    1.140410
  N     -0.573140    1.423540    0.778280
  C     -1.129900    1.334790   -0.549960
  C     -0.278600    0.453020   -1.456560
  C     -1.106470    0.656970    1.839850
  O     -2.132730    0.011650    1.743560
  C     -0.180520    0.855100    2.925990
  C      0.871380    1.691640    2.447770
  C      1.798550    1.918080    3.535150
  O      2.828020    2.551000    3.614870
  N      1.249140    1.183390    4.605940
  C      1.876660    1.185870    5.904620
  C      1.205210    2.168850    6.861060
  C      0.069300    0.561400    4.261300
  C     -0.703530   -0.214470    5.164300
  C     -1.874120   -0.795120    4.798010
  C     -2.711080   -1.547400    5.663370
  S     -4.194110   -2.215550    5.049260
  C     -4.616650   -2.883320    6.592630
  C     -3.622570   -2.589950    7.535380
  C     -2.560800   -1.844560    7.005440
  C     -3.636690   -2.967370    8.889330
  N     -3.586920   -3.240400   10.002900
  C     -5.848560   -3.569670    6.721820
  C     -6.316960   -4.150250    7.857500
  C     -7.564250   -4.812690    7.991180
  C     -8.728890   -4.601190    7.307660
  C     -9.940760   -5.383580    7.491270
  C    -10.015270   -6.646540    8.018030
  C    -11.216880   -7.372080    8.156350
  N    -12.161740   -8.007840    8.301100
  C     -8.910730   -7.412010    8.448630
  N     -8.063510   -8.107310    8.791130
  C    -11.053730   -4.632570    6.926180
  C    -10.536720   -3.451120    6.324170
  C     -9.073490   -3.406180    6.488710
  O     -8.337220   -2.537230    6.072130
  C    -11.343910   -2.547570    5.695150
  C    -12.734450   -2.789940    5.638910
  C    -13.261820   -3.965590    6.247410
  C    -12.400200   -4.882460    6.892520
  C    -14.651560   -4.194880    6.188320
  C    -15.481150   -3.309100    5.556150
  C    -14.960410   -2.153070    4.955590
  C    -13.616300   -1.899030    4.996130
  H     -4.742080    7.594160    0.021920
  H     -1.979880    7.670250   -4.130500
  H     -3.319080    9.498350   -4.985090
  H     -5.176930   11.094000   -4.727200
  H     -6.560640   11.071850   -2.689830
  H     -6.097040    9.453310   -0.891630
  H     -0.905830    4.154860    0.961180
  H      3.170160    1.731940    0.583620
  H      1.308160    5.890740   -1.361380
  H      5.687450    5.859310   -2.581790
  H      6.632330    3.705040   -1.645450
  H     -1.227340    2.334860   -0.980440
  H     -2.126410    0.901490   -0.425160
  H      0.701880    0.896650   -1.610940
  H     -0.761380    0.350480   -2.423890
  H     -0.160080   -0.534610   -1.016710
  H      2.913300    1.491760    5.736840
  H      1.871540    0.172770    6.316760
  H      1.266390    3.176390    6.457380
  H      1.709070    2.149060    7.823470
  H      0.156490    1.919420    7.008120
  H     -0.333680   -0.326840    6.172510
  H     -2.223610   -0.677650    3.780600
  H     -1.719230   -1.534320    7.598740
  H     -6.433490   -3.625070    5.816230
  H     -5.682450   -4.177920    8.733310
  H     -7.593870   -5.544680    8.790760
  H    -10.925320   -1.660540    5.243120
  H    -12.830300   -5.759660    7.349270
  H    -15.047730   -5.087170    6.650480
  H    -16.543980   -3.494740    5.514870
  H    -15.629520   -1.464950    4.460880
  H    -13.209140   -1.010650    4.535690

 Total Charge           Charge          ....    0
 Multiplicity           Mult            ....    1
 Number of Electrons    NEL             ....  510
 Basis Dimension        Dim             .... 1219

ORBITAL ENERGIES
----------------

  NO   OCC          E(Eh)            E(eV)
   0   2.0000     -88.984839     -2421.4006
   1   2.0000     -19.222366      -523.0672
   2   2.0000     -19.217535      -522.9357
   3   2.0000     -19.193886      -522.2922
   4   2.0000     -19.189671      -522.1775
   5   2.0000     -14.456040      -393.3689
   6   2.0000     -14.454957      -393.3394
   7   2.0000     -14.428503      -392.6195
   8   2.0000     -14.426651      -392.5691
   9   2.0000     -14.425397      -392.5350
  10   2.0000     -14.423065      -392.4716
  11   2.0000     -14.417888      -392.3307
  12   2.0000     -14.413110      -392.2007
  13   2.0000     -14.412178      -392.1753
  14   2.0000     -10.375505      -282.3318
  15   2.0000     -10.375478      -282.3311
  16   2.0000     -10.372915      -282.2614
  17   2.0000     -10.369366      -282.1648
  18   2.0000     -10.353135      -281.7231
  19   2.0000     -10.351186      -281.6701
  20   2.0000     -10.345589      -281.5178
  21   2.0000     -10.340632      -281.3829
  22   2.0000     -10.340400      -281.3766
  23   2.0000     -10.338253      -281.3182
  24   2.0000     -10.337312      -281.2926
  25   2.0000     -10.329799      -281.0881
  26   2.0000     -10.329362      -281.0762
  27   2.0000     -10.327412      -281.0232
  28   2.0000     -10.325278      -280.9651
  29   2.0000     -10.323888      -280.9273
  30   2.0000     -10.322473      -280.8888
  31   2.0000     -10.322209      -280.8816
  32   2.0000     -10.322122      -280.8792
  33   2.0000     -10.321762      -280.8694
  34   2.0000     -10.318215      -280.7729
  35   2.0000     -10.317205      -280.7454
  36   2.0000     -10.315822      -280.7078
  37   2.0000     -10.314827      -280.6807
  38   2.0000     -10.311483      -280.5897
  39   2.0000     -10.311335      -280.5857
  40   2.0000     -10.311181      -280.5815
  41   2.0000     -10.310572      -280.5649
  42   2.0000     -10.309305      -280.5305
  43   2.0000     -10.308780      -280.5162
  44   2.0000     -10.308354      -280.5046
  45   2.0000     -10.305840      -280.4362
  46   2.0000     -10.304551      -280.4011
  47   2.0000     -10.304319      -280.3948
  48   2.0000     -10.304063      -280.3878
  49   2.0000     -10.303927      -280.3841
  50   2.0000     -10.301824      -280.3269
  51   2.0000     -10.301077      -280.3066
  52   2.0000     -10.300935      -280.3027
  53   2.0000     -10.300320      -280.2860
  54   2.0000     -10.297381      -280.2060
  55   2.0000     -10.297130      -280.1992
  56   2.0000     -10.296748      -280.1888
  57   2.0000     -10.296470      -280.1812
  58   2.0000     -10.296296      -280.1765
  59   2.0000     -10.296001      -280.1684
  60   2.0000     -10.294081      -280.1162
  61   2.0000     -10.292516      -280.0736
  62   2.0000     -10.292007      -280.0598
  63   2.0000     -10.291751      -280.0528
  64   2.0000     -10.291278      -280.0399
  65   2.0000     -10.290623      -280.0221
  66   2.0000     -10.288176      -279.9555
  67   2.0000     -10.286452      -279.9086
  68   2.0000     -10.285939      -279.8946
  69   2.0000     -10.285575      -279.8847
  70   2.0000     -10.285042      -279.8702
  71   2.0000     -10.266899      -279.3765
  72   2.0000     -10.263292      -279.2784
  73   2.0000     -10.262520      -279.2574
  74   2.0000     -10.250183      -278.9217
  75   2.0000      -8.080335      -219.8771
  76   2.0000      -6.049339      -164.6109
  77   2.0000      -6.045249      -164.4996
  78   2.0000      -6.042897      -164.4356
  79   2.0000      -1.137846       -30.9624
  80   2.0000      -1.134960       -30.8838
  81   2.0000      -1.132824       -30.8257
  82   2.0000      -1.127974       -30.6937
  83   2.0000      -1.083576       -29.4856
  84   2.0000      -1.066245       -29.0140
  85   2.0000      -1.057909       -28.7872
  86   2.0000      -1.027309       -27.9545
  87   2.0000      -1.022244       -27.8167
  88   2.0000      -1.016183       -27.6517
  89   2.0000      -1.006697       -27.3936
  90   2.0000      -1.006295       -27.3827
  91   2.0000      -1.002495       -27.2793
  92   2.0000      -0.997024       -27.1304
  93   2.0000      -0.996384       -27.1130
  94   2.0000      -0.991068       -26.9683
  95   2.0000      -0.981301       -26.7026
  96   2.0000      -0.971526       -26.4366
  97   2.0000      -0.971074       -26.4243
  98   2.0000      -0.937443       -25.5091
  99   2.0000      -0.931636       -25.3511
 100   2.0000      -0.929499       -25.2930
 101   2.0000      -0.923015       -25.1165
 102   2.0000      -0.913118       -24.8472
 103   2.0000      -0.911293       -24.7976
 104   2.0000      -0.891782       -24.2666
 105   2.0000      -0.889266       -24.1982
 106   2.0000      -0.886805       -24.1312
 107   2.0000      -0.883862       -24.0511
 108   2.0000      -0.880339       -23.9553
 109   2.0000      -0.877914       -23.8892
 110   2.0000      -0.869855       -23.6700
 111   2.0000      -0.865501       -23.5515
 112   2.0000      -0.846935       -23.0463
 113   2.0000      -0.835147       -22.7255
 114   2.0000      -0.833557       -22.6822
 115   2.0000      -0.827637       -22.5211
 116   2.0000      -0.818374       -22.2691
 117   2.0000      -0.808891       -22.0111
 118   2.0000      -0.802845       -21.8465
 119   2.0000      -0.796902       -21.6848
 120   2.0000      -0.775834       -21.1115
 121   2.0000      -0.770217       -20.9587
 122   2.0000      -0.760523       -20.6949
 123   2.0000      -0.759408       -20.6645
 124   2.0000      -0.756698       -20.5908
 125   2.0000      -0.743328       -20.2270
 126   2.0000      -0.738906       -20.1066
 127   2.0000      -0.723683       -19.6924
 128   2.0000      -0.721042       -19.6206
 129   2.0000      -0.710419       -19.3315
 130   2.0000      -0.708350       -19.2752
 131   2.0000      -0.707189       -19.2436
 132   2.0000      -0.703781       -19.1509
 133   2.0000      -0.699269       -19.0281
 134   2.0000      -0.695675       -18.9303
 135   2.0000      -0.690473       -18.7887
 136   2.0000      -0.684389       -18.6232
 137   2.0000      -0.683105       -18.5882
 138   2.0000      -0.681483       -18.5441
 139   2.0000      -0.668926       -18.2024
 140   2.0000      -0.653544       -17.7838
 141   2.0000      -0.647471       -17.6186
 142   2.0000      -0.643332       -17.5060
 143   2.0000      -0.639969       -17.4144
 144   2.0000      -0.636885       -17.3305
 145   2.0000      -0.632418       -17.2090
 146   2.0000      -0.627895       -17.0859
 147   2.0000      -0.623389       -16.9633
 148   2.0000      -0.614339       -16.7170
 149   2.0000      -0.608186       -16.5496
 150   2.0000      -0.606128       -16.4936
 151   2.0000      -0.601084       -16.3563
 152   2.0000      -0.597890       -16.2694
 153   2.0000      -0.596174       -16.2227
 154   2.0000      -0.591703       -16.1011
 155   2.0000      -0.586758       -15.9665
 156   2.0000      -0.574288       -15.6272
 157   2.0000      -0.571549       -15.5526
 158   2.0000      -0.567216       -15.4347
 159   2.0000      -0.560977       -15.2650
 160   2.0000      -0.558413       -15.1952
 161   2.0000      -0.555433       -15.1141
 162   2.0000      -0.553039       -15.0490
 163   2.0000      -0.551744       -15.0137
 164   2.0000      -0.551083       -14.9957
 165   2.0000      -0.547371       -14.8947
 166   2.0000      -0.546239       -14.8639
 167   2.0000      -0.539447       -14.6791
 168   2.0000      -0.537183       -14.6175
 169   2.0000      -0.535448       -14.5703
 170   2.0000      -0.534030       -14.5317
 171   2.0000      -0.533763       -14.5244
 172   2.0000      -0.530688       -14.4407
 173   2.0000      -0.529286       -14.4026
 174   2.0000      -0.527690       -14.3592
 175   2.0000      -0.524901       -14.2833
 176   2.0000      -0.523948       -14.2574
 177   2.0000      -0.521282       -14.1848
 178   2.0000      -0.520990       -14.1769
 179   2.0000      -0.518609       -14.1121
 180   2.0000      -0.518367       -14.1055
 181   2.0000      -0.517181       -14.0732
 182   2.0000      -0.513913       -13.9843
 183   2.0000      -0.511462       -13.9176
 184   2.0000      -0.510167       -13.8823
 185   2.0000      -0.506520       -13.7831
 186   2.0000      -0.505318       -13.7504
 187   2.0000      -0.503905       -13.7120
 188   2.0000      -0.499825       -13.6009
 189   2.0000      -0.495374       -13.4798
 190   2.0000      -0.493623       -13.4322
 191   2.0000      -0.492228       -13.3942
 192   2.0000      -0.484282       -13.1780
 193   2.0000      -0.480319       -13.0702
 194   2.0000      -0.477750       -13.0002
 195   2.0000      -0.477031       -12.9807
 196   2.0000      -0.472923       -12.8689
 197   2.0000      -0.471503       -12.8303
 198   2.0000      -0.467370       -12.7178
 199   2.0000      -0.466743       -12.7007
 200   2.0000      -0.465056       -12.6548
 201   2.0000      -0.463553       -12.6139
 202   2.0000      -0.460964       -12.5435
 203   2.0000      -0.460562       -12.5325
 204   2.0000      -0.456077       -12.4105
 205   2.0000      -0.454659       -12.3719
 206   2.0000      -0.452853       -12.3228
 207   2.0000      -0.451359       -12.2821
 208   2.0000      -0.447990       -12.1904
 209   2.0000      -0.446086       -12.1386
 210   2.0000      -0.445651       -12.1268
 211   2.0000      -0.443114       -12.0577
 212   2.0000      -0.442117       -12.0306
 213   2.0000      -0.442045       -12.0287
 214   2.0000      -0.440481       -11.9861
 215   2.0000      -0.440396       -11.9838
 216   2.0000      -0.438155       -11.9228
 217   2.0000      -0.436939       -11.8897
 218   2.0000      -0.433449       -11.7947
 219   2.0000      -0.432914       -11.7802
 220   2.0000      -0.431975       -11.7546
 221   2.0000      -0.431261       -11.7352
 222   2.0000      -0.427196       -11.6246
 223   2.0000      -0.426060       -11.5937
 224   2.0000      -0.424710       -11.5570
 225   2.0000      -0.421140       -11.4598
 226   2.0000      -0.418550       -11.3893
 227   2.0000      -0.417104       -11.3500
 228   2.0000      -0.415677       -11.3111
 229   2.0000      -0.411443       -11.1959
 230   2.0000      -0.406115       -11.0510
 231   2.0000      -0.403231       -10.9725
 232   2.0000      -0.402254       -10.9459
 233   2.0000      -0.396941       -10.8013
 234   2.0000      -0.390161       -10.6168
 235   2.0000      -0.382785       -10.4161
 236   2.0000      -0.378507       -10.2997
 237   2.0000      -0.366804        -9.9812
 238   2.0000      -0.363123        -9.8811
 239   2.0000      -0.349171        -9.5014
 240   2.0000      -0.345394        -9.3986
 241   2.0000      -0.342745        -9.3266
 242   2.0000      -0.342173        -9.3110
 243   2.0000      -0.334355        -9.0983
 244   2.0000      -0.328634        -8.9426
 245   2.0000      -0.327703        -8.9173
 246   2.0000      -0.325569        -8.8592
 247   2.0000      -0.323082        -8.7915
 248   2.0000      -0.317146        -8.6300
 249   2.0000      -0.315841        -8.5945
 250   2.0000      -0.308910        -8.4059
 251   2.0000      -0.299710        -8.1555
 252   2.0000      -0.295576        -8.0430
 253   2.0000      -0.281498        -7.6599
 254   2.0000      -0.245750        -6.6872
 255   0.0000      -0.107337        -2.9208
 256   0.0000      -0.098759        -2.6874
 257   0.0000      -0.074858        -2.0370
 258   0.0000      -0.062829        -1.7097
 259   0.0000      -0.058266        -1.5855

MULLIKEN ATOMIC CHARGES
-----------------------
   0 C :    0.281926
   1 C :   -0.335623
   2 C :   -0.183185
   3 N :    0.159592
   4 C :   -0.182854
   5 N :    0.174839
   6 C :    0.024326
   7 C :    0.015811
   8 C :   -0.079641
   9 C :    0.094884
  10 C :    0.092119
  11 C :   -0.074008
  12 C :   -0.014744
  13 C :    0.035444
  14 C :    0.035674
  15 C :   -0.014622
  16 C :    0.130401
  17 O :   -0.131088
  18 C :   -0.082553
  19 C :   -0.037146
  20 C :    0.100584
  21 C :    0.058884
  22 C :   -0.027576
  23 C :    0.014153
  24 C :   -0.005180
  25 C :   -0.058854
  26 N :   -0.011653
  27 C :    0.025874
  28 C :    0.029824
  29 N :   -0.007724
  30 C :    0.018954
  31 N :   -0.254910
  32 C :    0.108615
  33 C :    0.005352
  34 C :    0.173654
  35 O :   -0.210075
  36 C :   -0.085385
  37 C :   -0.004416
  38 C :    0.131421
  39 O :   -0.182626
  40 N :   -0.270754
  41 C :    0.100761
  42 C :    0.004194
  43 C :    0.146525
  44 C :   -0.027056
  45 C :    0.089104
  46 C :   -0.078374
  47 S :    0.209090
  48 C :   -0.094214
  49 C :   -0.061364
  50 C :    0.012743
  51 C :   -0.170127
  52 N :    0.124481
  53 C :    0.132924
  54 C :   -0.027014
  55 C :   -0.001321
  56 C :   -0.091098
  57 C :    0.295608
  58 C :   -0.338017
  59 C :   -0.178274
  60 N :    0.144321
  61 C :   -0.209195
  62 N :    0.165243
  63 C :    0.051546
  64 C :   -0.004827
  65 C :    0.152804
  66 O :   -0.155771
  67 C :   -0.081353
  68 C :    0.098514
  69 C :    0.097009
  70 C :   -0.084134
  71 C :   -0.018638
  72 C :    0.034497
  73 C :    0.036890
  74 C :   -0.016928
  75 H :   -0.009083
  76 H :   -0.003024
  77 H :   -0.008430
  78 H :   -0.001876
  79 H :   -0.002138
  80 H :   -0.014898
  81 H :    0.049960
  82 H :   -0.014098
  83 H :   -0.015679
  84 H :    0.016751
  85 H :    0.017318
  86 H :    0.020768
  87 H :    0.041867
  88 H :    0.040374
  89 H :    0.021816
  90 H :    0.015215
  91 H :    0.044353
  92 H :    0.021725
  93 H :    0.031581
  94 H :    0.024681
  95 H :    0.013104
  96 H :   -0.027457
  97 H :    0.010983
  98 H :   -0.000182
  99 H :    0.009337
 100 H :    0.019794
 101 H :    0.037613
 102 H :   -0.013750
 103 H :   -0.007056
 104 H :   -0.008932
 105 H :   -0.003807
 106 H :   -0.004890
 107 H :   -0.018201
Sum of atomic charges:   -0.0000000

LOEWDIN ATOMIC CHARGES
----------------------
   0 C :    0.067864
   1 C :   -0.131617
   2 C :   -0.018158
   3 N :   -0.045354
   4 C :   -0.012112
   5 N :   -0.036990
   6 C :   -0.024791
   7 C :   -0.058344
   8 C :    0.035410
   9 C :   -0.007885
  10 C :   -0.004863
  11 C :    0.019568
  12 C :   -0.004953
  13 C :   -0.011056
  14 C :   -0.010549
  15 C :   -0.008493
  16 C :    0.084676
  17 O :   -0.133948
  18 C :   -0.081267
  19 C :    0.073361
  20 C :   -0.028410
  21 C :   -0.016202
  22 C :    0.028828
  23 C :   -0.000902
  24 C :   -0.009603
  25 C :    0.019476
  26 N :   -0.036724
  27 C :    0.008416
  28 C :    0.011944
  29 N :   -0.032422
  30 C :    0.069439
  31 N :    0.005597
  32 C :    0.035167
  33 C :   -0.060508
  34 C :    0.080789
  35 O :   -0.199367
  36 C :   -0.127565
  37 C :   -0.119299
  38 C :    0.080033
  39 O :   -0.190803
  40 N :   -0.007168
  41 C :    0.035744
  42 C :   -0.061129
  43 C :    0.082833
  44 C :   -0.039953
  45 C :    0.011532
  46 C :   -0.165013
  47 S :    0.509397
  48 C :   -0.145902
  49 C :   -0.091187
  50 C :   -0.015185
  51 C :   -0.028017
  52 N :   -0.047897
  53 C :    0.023398
  54 C :   -0.033124
  55 C :    0.068900
  56 C :   -0.088104
  57 C :    0.073948
  58 C :   -0.136563
  59 C :   -0.016473
  60 N :   -0.053431
  61 C :   -0.027156
  62 N :   -0.047450
  63 C :   -0.025855
  64 C :   -0.055381
  65 C :    0.083449
  66 O :   -0.143015
  67 C :    0.032023
  68 C :   -0.008505
  69 C :   -0.005899
  70 C :    0.019129
  71 C :   -0.005296
  72 C :   -0.013479
  73 C :   -0.012612
  74 C :   -0.009751
  75 H :    0.040544
  76 H :    0.039572
  77 H :    0.035178
  78 H :    0.034288
  79 H :    0.033834
  80 H :    0.032749
  81 H :    0.050679
  82 H :    0.044745
  83 H :    0.037384
  84 H :    0.028112
  85 H :    0.028566
  86 H :    0.019664
  87 H :    0.036205
  88 H :    0.024964
  89 H :    0.031880
  90 H :    0.025362
  91 H :    0.038754
  92 H :    0.022157
  93 H :    0.033319
  94 H :    0.031189
  95 H :    0.020780
  96 H :    0.028278
  97 H :    0.038320
  98 H :    0.039209
  99 H :    0.036417
 100 H :    0.042425
 101 H :    0.049891
 102 H :    0.038577
 103 H :    0.039132
 104 H :    0.034843
 105 H :    0.033383
 106 H :    0.032781
 107 H :    0.031631

  Mayer bond orders larger than 0.100000
B(  0-C ,  1-C ) :   1.6690 B(  0-C ,  6-C ) :   1.0018 B(  0-C , 18-C ) :   1.0088
B(  1-C ,  2-C ) :   1.1296 B(  1-C ,  4-C ) :   1.1726 B(  2-C ,  3-N ) :   2.9896
B(  4-C ,  5-N ) :   2.9429 B(  6-C ,  7-C ) :   1.2118 B(  6-C , 11-C ) :   1.4536
B(  7-C ,  8-C ) :   1.4682 B(  7-C , 16-C ) :   0.9250 B(  8-C ,  9-C ) :   1.1892
B(  8-C , 75-H ) :   1.0163 B(  9-C , 10-C ) :   1.2526 B(  9-C , 15-C ) :   1.2422
B( 10-C , 11-C ) :   1.2093 B( 10-C , 12-C ) :   1.2416 B( 11-C , 76-H ) :   0.9920
B( 12-C , 13-C ) :   1.4905 B( 12-C , 77-H ) :   0.9972 B( 13-C , 14-C ) :   1.2587
B( 13-C , 78-H ) :   0.9888 B( 14-C , 15-C ) :   1.4913 B( 14-C , 79-H ) :   0.9890
B( 15-C , 80-H ) :   0.9977 B( 16-C , 17-O ) :   2.2770 B( 16-C , 18-C ) :   0.9218
B( 18-C , 19-C ) :   1.7177 B( 19-C , 20-C ) :   1.0154 B( 19-C , 81-H ) :   0.9289
B( 20-C , 21-C ) :   1.2404 B( 20-C , 25-C ) :   1.3865 B( 21-C , 22-C ) :   1.4389
B( 21-C , 30-C ) :   0.9576 B( 22-C , 23-C ) :   1.2009 B( 22-C , 25-C ) :   0.1025
B( 22-C , 82-H ) :   1.0198 B( 23-C , 24-C ) :   1.2492 B( 23-C , 29-N ) :   1.4251
B( 24-C , 25-C ) :   1.2375 B( 24-C , 26-N ) :   1.4329 B( 25-C , 83-H ) :   1.0114
B( 26-N , 27-C ) :   1.6763 B( 27-C , 28-C ) :   1.2162 B( 27-C , 84-H ) :   0.9738
B( 28-C , 29-N ) :   1.6777 B( 28-C , 85-H ) :   0.9740 B( 30-C , 31-N ) :   1.2037
B( 30-C , 37-C ) :   1.4736 B( 31-N , 32-C ) :   0.9392 B( 31-N , 34-C ) :   1.0429
B( 32-C , 33-C ) :   1.1241 B( 32-C , 86-H ) :   0.9383 B( 32-C , 87-H ) :   0.9247
B( 33-C , 88-H ) :   0.9602 B( 33-C , 89-H ) :   0.9654 B( 33-C , 90-H ) :   0.9609
B( 34-C , 35-O ) :   2.0159 B( 34-C , 36-C ) :   1.0008 B( 35-O , 97-H ) :   0.1187
B( 36-C , 37-C ) :   1.2046 B( 36-C , 43-C ) :   1.3572 B( 37-C , 38-C ) :   0.9525
B( 38-C , 39-O ) :   2.1685 B( 38-C , 40-N ) :   1.0261 B( 40-N , 41-C ) :   0.9461
B( 40-N , 43-C ) :   1.1576 B( 41-C , 42-C ) :   1.1216 B( 41-C , 91-H ) :   0.9266
B( 41-C , 92-H ) :   0.9501 B( 42-C , 93-H ) :   0.9633 B( 42-C , 94-H ) :   0.9677
B( 42-C , 95-H ) :   0.9684 B( 43-C , 44-C ) :   1.1578 B( 44-C , 45-C ) :   1.6335
B( 44-C , 96-H ) :   0.9630 B( 45-C , 46-C ) :   1.1141 B( 45-C , 97-H ) :   0.9338
B( 46-C , 47-S ) :   1.1484 B( 46-C , 50-C ) :   1.4420 B( 47-S , 48-C ) :   1.1505
B( 48-C , 49-C ) :   1.4071 B( 48-C , 53-C ) :   1.1884 B( 49-C , 50-C ) :   1.3343
B( 49-C , 51-C ) :   1.1122 B( 50-C , 98-H ) :   0.9993 B( 51-C , 52-N ) :   2.9766
B( 53-C , 54-C ) :   1.6498 B( 53-C , 99-H ) :   0.9251 B( 54-C , 55-C ) :   1.1978
B( 54-C ,100-H ) :   0.9445 B( 55-C , 56-C ) :   1.5985 B( 55-C ,101-H ) :   0.9466
B( 56-C , 57-C ) :   1.0588 B( 56-C , 65-C ) :   0.9396 B( 57-C , 58-C ) :   1.6437
B( 57-C , 63-C ) :   0.9917 B( 58-C , 59-C ) :   1.1439 B( 58-C , 61-C ) :   1.1357
B( 59-C , 60-N ) :   2.9661 B( 61-C , 62-N ) :   3.0050 B( 63-C , 64-C ) :   1.2102
B( 63-C , 70-C ) :   1.4514 B( 64-C , 65-C ) :   0.9504 B( 64-C , 67-C ) :   1.4724
B( 65-C , 66-O ) :   2.2000 B( 67-C , 68-C ) :   1.1805 B( 67-C ,102-H ) :   1.0158
B( 68-C , 69-C ) :   1.2530 B( 68-C , 74-C ) :   1.2448 B( 69-C , 70-C ) :   1.2062
B( 69-C , 71-C ) :   1.2409 B( 70-C ,103-H ) :   0.9902 B( 71-C , 72-C ) :   1.4894
B( 71-C ,104-H ) :   0.9970 B( 72-C , 73-C ) :   1.2587 B( 72-C ,105-H ) :   0.9889
B( 73-C , 74-C ) :   1.4901 B( 73-C ,106-H ) :   0.9887 B( 74-C ,107-H ) :   0.9972

-----------------------------------------------------------------------------
         ABSORPTION SPECTRUM VIA TRANSITION ELECTRIC DIPOLE MOMENTS
-----------------------------------------------------------------------------
State   Energy  Wavelength   fosc         T2         TX        TY        TZ
        (cm-1)    (nm)                  (au**2)     (au)      (au)      (au)
-----------------------------------------------------------------------------
   0   15780.2    633.7   0.724567108  15.11620   2.37420   2.12850  -2.22461
   1   17064.6    586.0   0.269485084   5.19893  -1.93655  -0.91429   0.78279
   2   21719.5    460.4   0.465438284   7.05487   2.38243   0.83107   0.82957
   3   23257.7    430.0   0.212815473   3.01239  -0.53924  -0.89129   1.38824
   4   25483.6    392.4   0.087178489   1.12622  -1.05690  -0.06597   0.06955
   5   25779.4    387.9   0.008511568   0.10870  -0.25868   0.02301  -0.20310
   6   26127.5    382.7   0.123564189   1.55694   1.06957   0.03875   0.64145
   7   26604.6    375.9   0.246756352   3.05342  -1.39722  -0.95375   0.43767
   8   26902.4    371.7   0.210836933   2.58007   1.30487  -0.86801   0.35204
   9   27479.2    363.9   0.055965857   0.67049   0.79290   0.20161   0.03405
  10   27883.5    358.6   0.027613951   0.32603  -0.52382  -0.14654   0.17367
  11   28300.9    353.3   0.050793284   0.59086   0.66446   0.04245   0.38412
  12   28623.9    349.4   0.020200807   0.23234  -0.25881   0.23966   0.32851
  13   28884.1    346.2   0.147812292   1.68472   1.11755  -0.54625   0.37068
  14   29008.0    344.7   0.014080709   0.15980  -0.32996   0.17595  -0.14132
  15   29274.5    341.6   0.004067885   0.04575   0.18338   0.04943   0.09835
  16   29883.6    334.6   0.003301316   0.03637   0.05202   0.13708   0.12195
  17   29983.5    333.5   0.032536633   0.35724   0.36370  -0.36553   0.30224
  18   30556.6    327.3   0.070199735   0.75632   0.66064  -0.41142   0.38808
  19   30821.8    324.4   0.015442262   0.16494  -0.16622  -0.22062   0.29773
  20   31833.4    314.1   0.004195905   0.04339   0.05934  -0.15443   0.12658
  21   32157.2    311.0   0.065539912   0.67097  -0.08641  -0.80445   0.12789
  22   32417.4    308.5   0.028892077   0.29341  -0.51400   0.10622  -0.13390
  23   32662.2    306.2   0.542910952   5.47217   1.75337  -1.23215   0.93791
  24   33187.9    301.3   0.013427983   0.13320   0.18130  -0.31116   0.05923
  25   33336.0    300.0   0.029605905   0.29238   0.47321  -0.25978   0.03105
  26   33438.5    299.1   0.099423155   0.97885   0.57557  -0.80227  -0.06271
  27   33485.2    298.6   0.084159265   0.82742  -0.52460   0.63425   0.38723
  28   34098.1    293.3   0.141031247   1.36164   0.61193  -0.89081   0.44003
  29   34236.1    292.1   0.948837365   9.12396   2.28701  -1.93841  -0.36889
  30   34546.0    289.5   0.167663364   1.59778   0.12765  -0.66333   1.06840
  31   34631.7    288.8   0.217248663   2.06518  -1.07333   0.87574  -0.38240
  32   35226.0    283.9   0.044486369   0.41576   0.58657   0.04188  -0.26446
  33   35321.0    283.1   0.055769425   0.51980  -0.06787   0.22012   0.68319
  34   35668.8    280.4   0.011527292   0.10639  -0.30343  -0.11939  -0.00830
  35   35975.0    278.0   0.006687968   0.06120   0.03608   0.19026  -0.15395
  36   36091.8    277.1   0.008313742   0.07583   0.14729  -0.09336   0.21312
  37   36220.8    276.1   0.135892964   1.23514  -1.10058  -0.12231   0.09435
  38   36809.3    271.7   0.043690961   0.39076   0.22957   0.43678  -0.38377
  39   37106.1    269.5   0.026474469   0.23489   0.32467   0.35719  -0.04345
  40   37614.6    265.9   0.006678828   0.05845  -0.13016  -0.02218  -0.20254
  41   37941.7    263.6   0.162565426   1.41054   0.72391   0.88268  -0.32770
  42   38472.4    259.9   0.065457504   0.56013  -0.68282   0.26159   0.15953
  43   38572.2    259.3   0.020062846   0.17124   0.16928  -0.34664   0.14972
  44   38631.4    258.9   0.137716167   1.17360   0.26082  -0.89929   0.54484
  45   38766.3    258.0   0.011108154   0.09433  -0.06205   0.29998   0.02224
  46   38882.7    257.2   0.032579972   0.27585   0.19226  -0.41792   0.25344
  47   38914.6    257.0   0.019786253   0.16739   0.38512  -0.11743  -0.07267
  48   39170.1    255.3   0.021634744   0.18183   0.03510   0.21761  -0.36503
  49   39821.6    251.1   0.083431382   0.68974  -0.50719  -0.59653   0.27686
  50   39909.4    250.6   0.048215618   0.39773  -0.00406  -0.57817   0.25185
  51   40080.4    249.5   0.002542753   0.02089  -0.09879  -0.10318   0.02189

FINAL SINGLE POINT ENERGY     -3532.058443507675

DIPOLE MOMENT
-------------
                                X             Y             Z
Electronic contribution:     -5.07964     -18.94046       4.90283
Nuclear contribution   :      4.21664      23.23043      -6.47433
                        -----------------------------------------
Total Dipole Moment    :     -0.86299       4.28997      -1.57151
                        -----------------------------------------
Magnitude (a.u.)       :      4.64954
Magnitude (Debye)      :     11.81820

Rotational constants in cm-1:     0.001118     0.000313     0.000259
Rotational constants in MHz :    33.519507     9.369622     7.757728

                             ****ORCA TERMINATED NORMALLY****
TOTAL RUN TIME: 0 days 0 hours 11 minutes 9 seconds 765 msec
