                         Program Version 4.2.0 -  RELEASE  -
|  1> # ORCA input file
|  2> # SCF done       -160.500604263389          0.000191036942
|  3> ! CAM-B3LYP def2-SVP def2/J RIJCOSX Grid4 TightSCF
|  4> %maxcore 5000
|  5> %tddft
|  6>     Mode sTDDFT
|  7>     Ethresh 5.0
|  8>     maxcore 5000
|  9> end
| 10>
| 11> %pal
| 12>   nprocs 6
| 13>   end
| 14> * xyz 0 1
| 15>    C       -0.16719        -9.05943         0.88149
| 16>    C        0.68546        -9.81787         1.66790
| 17>    C        1.95973        -9.31644         1.93102
| 18>    C        2.79670        -9.98009         2.85848
| 19>    N        3.44074       -10.47102         3.66938
| 20>    C        2.40437        -8.10400         1.36529
| 21>    C        3.71321        -7.65491         1.64605
| 22>    N        4.77363        -7.29477         1.89131
| 23>    C        1.53912        -7.34545         0.57278
| 24>    C        0.25948        -7.81618         0.37598
| 25>    C       -0.88719        -7.14024        -0.28227
| 26>    O       -0.84557        -6.19528        -1.03400
| 27>    C       -2.06760        -7.98682         0.05154
| 28>    C       -1.56737        -9.26939         0.51650
| 29>    C       -2.25470       -10.44703         0.60676
| 30>    C       -1.68281       -11.65049         1.07106
| 31>    N       -1.25041       -12.64528         1.44518
| 32>    C       -3.59629       -10.60494         0.19580
| 33>    N       -4.68184       -10.78512        -0.12803
| 34>    C       -3.34789        -7.54081         0.03100
| 35>    C       -3.64208        -6.13342         0.02153
| 36>    C       -4.59787        -5.45774        -0.65124
| 37>    C       -4.50279        -4.00634        -0.33926
| 38>    C       -3.37467        -3.94649         0.63303
| 39>    C       -2.87244        -5.17767         0.84189
| 40>    C       -1.81432        -5.59770         1.73170
| 41>    C       -0.67372        -4.91395         1.93365
| 42>    C        0.42663        -5.37164         2.71822
| 43>    N        1.60907        -4.66404         2.74350
| 44>    C        2.51252        -5.34630         3.49325
| 45>    C        3.81628        -5.31931         3.98986
| 46>    C        3.96832        -6.48442         4.73722
| 47>    N        2.78529        -7.20082         4.72813
| 48>    C        1.88699        -6.52992         3.94984
| 49>    C        0.57543        -6.54086         3.47420
| 50>    C        5.09531        -6.84768         5.53742
| 51>    C        5.10189        -7.84347         6.43674
| 52>    C        6.15792        -8.06337         7.41034
| 53>    C        7.46456        -8.29964         7.20350
| 54>    C        8.15937        -8.53426         8.50250
| 55>    C        7.06374        -8.39857         9.49411
| 56>    C        5.89809        -8.10027         8.85994
| 57>    C        4.66545        -7.76819         9.50445
| 58>    C        3.65499        -7.09359         8.89882
| 59>    C        2.41747        -6.79058         9.49944
| 60>    C        1.39291        -6.09833         8.91419
| 61>    C        0.02027        -6.22668         9.46022
| 62>    O       -0.30302        -6.67872        10.53380
| 63>    C       -0.87408        -5.73871         8.38135
| 64>    C       -2.25054        -5.77047         8.32020
| 65>    C       -2.86913        -5.30701         7.15688
| 66>    C       -2.09051        -4.83284         6.08306
| 67>    C       -0.69756        -4.78985         6.16296
| 68>    C       -0.09031        -5.23713         7.32345
| 69>    C        1.32244        -5.31063         7.70249
| 70>    C        2.31039        -4.55802         7.11967
| 71>    C        3.63690        -4.44652         7.58727
| 72>    N        4.71688        -4.27377         7.93464
| 73>    C        2.06504        -3.66229         6.05789
| 74>    N        1.89508        -2.89817         5.21788
| 75>    C       -2.72850        -4.39266         4.89852
| 76>    N       -3.23152        -4.03921         3.93210
| 77>    C       -4.27959        -5.32529         7.04668
| 78>    N       -5.42211        -5.34844         6.96874
| 79>    H        0.38265       -10.75653         2.10539
| 80>    H        1.85596        -6.40550         0.14892
| 81>    H       -4.17586        -8.22817         0.14918
| 82>    H       -5.28495        -5.86808        -1.36849
| 83>    H       -5.43039        -3.62008         0.09096
| 84>    H       -4.30318        -3.41629        -1.23741
| 85>    H       -3.07369        -3.04540         1.13196
| 86>    H       -1.96087        -6.54554         2.23477
| 87>    H       -0.53131        -3.97480         1.41642
| 88>    H        1.73695        -3.75124         2.34110
| 89>    H        4.56552        -4.56832         3.84749
| 90>    H        2.68868        -8.13524         5.08651
| 91>    H       -0.17757        -7.28797         3.63451
| 92>    H        5.94670        -6.18733         5.46490
| 93>    H        4.25201        -8.50939         6.53477
| 94>    H        7.95866        -8.35689         6.25201
| 95>    H        8.95075        -7.80217         8.68388
| 96>    H        8.63337        -9.51847         8.54281
| 97>    H        7.21090        -8.48025        10.55573
| 98>    H        4.58362        -8.02251        10.55464
| 99>    H        3.79291        -6.78465         7.87493
|100>    H        2.19246        -7.23251        10.46431
|101>    H       -2.83399        -6.14758         9.14638
|102>    H       -0.13347        -4.43100         5.31787
|103> *
|104>
|105>                          ****END OF INPUT****

CARTESIAN COORDINATES (ANGSTROEM)
---------------------------------
  C     -0.167190   -9.059430    0.881490
  C      0.685460   -9.817870    1.667900
  C      1.959730   -9.316440    1.931020
  C      2.796700   -9.980090    2.858480
  N      3.440740  -10.471020    3.669380
  C      2.404370   -8.104000    1.365290
  C      3.713210   -7.654910    1.646050
  N      4.773630   -7.294770    1.891310
  C      1.539120   -7.345450    0.572780
  C      0.259480   -7.816180    0.375980
  C     -0.887190   -7.140240   -0.282270
  O     -0.845570   -6.195280   -1.034000
  C     -2.067600   -7.986820    0.051540
  C     -1.567370   -9.269390    0.516500
  C     -2.254700  -10.447030    0.606760
  C     -1.682810  -11.650490    1.071060
  N     -1.250410  -12.645280    1.445180
  C     -3.596290  -10.604940    0.195800
  N     -4.681840  -10.785120   -0.128030
  C     -3.347890   -7.540810    0.031000
  C     -3.642080   -6.133420    0.021530
  C     -4.597870   -5.457740   -0.651240
  C     -4.502790   -4.006340   -0.339260
  C     -3.374670   -3.946490    0.633030
  C     -2.872440   -5.177670    0.841890
  C     -1.814320   -5.597700    1.731700
  C     -0.673720   -4.913950    1.933650
  C      0.426630   -5.371640    2.718220
  N      1.609070   -4.664040    2.743500
  C      2.512520   -5.346300    3.493250
  C      3.816280   -5.319310    3.989860
  C      3.968320   -6.484420    4.737220
  N      2.785290   -7.200820    4.728130
  C      1.886990   -6.529920    3.949840
  C      0.575430   -6.540860    3.474200
  C      5.095310   -6.847680    5.537420
  C      5.101890   -7.843470    6.436740
  C      6.157920   -8.063370    7.410340
  C      7.464560   -8.299640    7.203500
  C      8.159370   -8.534260    8.502500
  C      7.063740   -8.398570    9.494110
  C      5.898090   -8.100270    8.859940
  C      4.665450   -7.768190    9.504450
  C      3.654990   -7.093590    8.898820
  C      2.417470   -6.790580    9.499440
  C      1.392910   -6.098330    8.914190
  C      0.020270   -6.226680    9.460220
  O     -0.303020   -6.678720   10.533800
  C     -0.874080   -5.738710    8.381350
  C     -2.250540   -5.770470    8.320200
  C     -2.869130   -5.307010    7.156880
  C     -2.090510   -4.832840    6.083060
  C     -0.697560   -4.789850    6.162960
  C     -0.090310   -5.237130    7.323450
  C      1.322440   -5.310630    7.702490
  C      2.310390   -4.558020    7.119670
  C      3.636900   -4.446520    7.587270
  N      4.716880   -4.273770    7.934640
  C      2.065040   -3.662290    6.057890
  N      1.895080   -2.898170    5.217880
  C     -2.728500   -4.392660    4.898520
  N     -3.231520   -4.039210    3.932100
  C     -4.279590   -5.325290    7.046680
  N     -5.422110   -5.348440    6.968740
  H      0.382650  -10.756530    2.105390
  H      1.855960   -6.405500    0.148920
  H     -4.175860   -8.228170    0.149180
  H     -5.284950   -5.868080   -1.368490
  H     -5.430390   -3.620080    0.090960
  H     -4.303180   -3.416290   -1.237410
  H     -3.073690   -3.045400    1.131960
  H     -1.960870   -6.545540    2.234770
  H     -0.531310   -3.974800    1.416420
  H      1.736950   -3.751240    2.341100
  H      4.565520   -4.568320    3.847490
  H      2.688680   -8.135240    5.086510
  H     -0.177570   -7.287970    3.634510
  H      5.946700   -6.187330    5.464900
  H      4.252010   -8.509390    6.534770
  H      7.958660   -8.356890    6.252010
  H      8.950750   -7.802170    8.683880
  H      8.633370   -9.518470    8.542810
  H      7.210900   -8.480250   10.555730
  H      4.583620   -8.022510   10.554640
  H      3.792910   -6.784650    7.874930
  H      2.192460   -7.232510   10.464310
  H     -2.833990   -6.147580    9.146380
  H     -0.133470   -4.431000    5.317870

 Total Charge           Charge          ....    0
 Multiplicity           Mult            ....    1
 Number of Electrons    NEL             ....  422
 Basis Dimension        Dim             .... 1016

ORBITAL ENERGIES
----------------

  NO   OCC          E(Eh)            E(eV)
   0   2.0000     -19.231062      -523.3038
   1   2.0000     -19.226741      -523.1862
   2   2.0000     -14.466348      -393.6493
   3   2.0000     -14.461576      -393.5195
   4   2.0000     -14.434806      -392.7911
   5   2.0000     -14.430483      -392.6734
   6   2.0000     -14.430016      -392.6607
   7   2.0000     -14.429351      -392.6426
   8   2.0000     -14.428302      -392.6141
   9   2.0000     -14.427928      -392.6039
  10   2.0000     -14.425281      -392.5319
  11   2.0000     -14.424333      -392.5061
  12   2.0000     -10.382469      -282.5213
  13   2.0000     -10.381956      -282.5074
  14   2.0000     -10.361663      -281.9552
  15   2.0000     -10.360023      -281.9106
  16   2.0000     -10.359606      -281.8992
  17   2.0000     -10.357677      -281.8467
  18   2.0000     -10.357201      -281.8338
  19   2.0000     -10.356675      -281.8195
  20   2.0000     -10.356160      -281.8054
  21   2.0000     -10.355732      -281.7938
  22   2.0000     -10.336170      -281.2615
  23   2.0000     -10.335852      -281.2528
  24   2.0000     -10.333469      -281.1880
  25   2.0000     -10.332787      -281.1694
  26   2.0000     -10.332063      -281.1497
  27   2.0000     -10.331502      -281.1345
  28   2.0000     -10.331412      -281.1320
  29   2.0000     -10.330467      -281.1063
  30   2.0000     -10.329795      -281.0880
  31   2.0000     -10.328649      -281.0568
  32   2.0000     -10.326822      -281.0071
  33   2.0000     -10.326136      -280.9885
  34   2.0000     -10.325874      -280.9813
  35   2.0000     -10.325207      -280.9632
  36   2.0000     -10.324389      -280.9409
  37   2.0000     -10.321806      -280.8706
  38   2.0000     -10.321401      -280.8596
  39   2.0000     -10.321370      -280.8587
  40   2.0000     -10.314570      -280.6737
  41   2.0000     -10.314344      -280.6676
  42   2.0000     -10.310443      -280.5614
  43   2.0000     -10.308838      -280.5177
  44   2.0000     -10.307048      -280.4690
  45   2.0000     -10.300669      -280.2955
  46   2.0000     -10.296055      -280.1699
  47   2.0000     -10.291613      -280.0490
  48   2.0000     -10.291309      -280.0408
  49   2.0000     -10.289435      -279.9898
  50   2.0000     -10.285936      -279.8945
  51   2.0000     -10.284837      -279.8646
  52   2.0000     -10.284094      -279.8444
  53   2.0000     -10.283579      -279.8304
  54   2.0000     -10.281234      -279.7666
  55   2.0000     -10.280270      -279.7404
  56   2.0000     -10.278491      -279.6920
  57   2.0000     -10.278396      -279.6894
  58   2.0000     -10.277690      -279.6702
  59   2.0000     -10.274192      -279.5750
  60   2.0000     -10.274078      -279.5719
  61   2.0000     -10.270719      -279.4805
  62   2.0000     -10.266254      -279.3590
  63   2.0000     -10.265218      -279.3308
  64   2.0000      -1.146258       -31.1913
  65   2.0000      -1.143352       -31.1122
  66   2.0000      -1.096290       -29.8316
  67   2.0000      -1.059143       -28.8207
  68   2.0000      -1.041036       -28.3280
  69   2.0000      -1.039937       -28.2981
  70   2.0000      -1.027675       -27.9645
  71   2.0000      -1.025230       -27.8979
  72   2.0000      -1.013278       -27.5727
  73   2.0000      -1.009646       -27.4739
  74   2.0000      -1.008386       -27.4396
  75   2.0000      -1.008048       -27.4304
  76   2.0000      -1.006892       -27.3989
  77   2.0000      -1.004300       -27.3284
  78   2.0000      -0.980557       -26.6823
  79   2.0000      -0.979137       -26.6437
  80   2.0000      -0.975747       -26.5514
  81   2.0000      -0.969090       -26.3703
  82   2.0000      -0.928797       -25.2739
  83   2.0000      -0.924600       -25.1596
  84   2.0000      -0.922228       -25.0951
  85   2.0000      -0.905388       -24.6369
  86   2.0000      -0.903394       -24.5826
  87   2.0000      -0.901360       -24.5273
  88   2.0000      -0.899644       -24.4806
  89   2.0000      -0.898805       -24.4577
  90   2.0000      -0.882730       -24.0203
  91   2.0000      -0.868547       -23.6344
  92   2.0000      -0.867116       -23.5954
  93   2.0000      -0.844137       -22.9701
  94   2.0000      -0.837067       -22.7778
  95   2.0000      -0.826967       -22.5029
  96   2.0000      -0.806647       -21.9500
  97   2.0000      -0.806526       -21.9467
  98   2.0000      -0.803878       -21.8746
  99   2.0000      -0.789147       -21.4738
 100   2.0000      -0.786507       -21.4019
 101   2.0000      -0.763003       -20.7624
 102   2.0000      -0.750533       -20.4230
 103   2.0000      -0.748841       -20.3770
 104   2.0000      -0.730503       -19.8780
 105   2.0000      -0.726640       -19.7729
 106   2.0000      -0.719693       -19.5838
 107   2.0000      -0.707609       -19.2550
 108   2.0000      -0.707353       -19.2480
 109   2.0000      -0.698857       -19.0169
 110   2.0000      -0.696148       -18.9432
 111   2.0000      -0.691081       -18.8053
 112   2.0000      -0.685487       -18.6530
 113   2.0000      -0.679345       -18.4859
 114   2.0000      -0.666628       -18.1399
 115   2.0000      -0.658961       -17.9312
 116   2.0000      -0.655504       -17.8372
 117   2.0000      -0.653745       -17.7893
 118   2.0000      -0.651294       -17.7226
 119   2.0000      -0.641099       -17.4452
 120   2.0000      -0.632523       -17.2118
 121   2.0000      -0.628022       -17.0894
 122   2.0000      -0.618114       -16.8197
 123   2.0000      -0.612893       -16.6777
 124   2.0000      -0.611300       -16.6343
 125   2.0000      -0.604697       -16.4546
 126   2.0000      -0.596918       -16.2430
 127   2.0000      -0.596126       -16.2214
 128   2.0000      -0.592880       -16.1331
 129   2.0000      -0.584984       -15.9182
 130   2.0000      -0.575688       -15.6653
 131   2.0000      -0.572437       -15.5768
 132   2.0000      -0.566270       -15.4090
 133   2.0000      -0.563566       -15.3354
 134   2.0000      -0.560285       -15.2461
 135   2.0000      -0.559399       -15.2220
 136   2.0000      -0.558111       -15.1870
 137   2.0000      -0.553333       -15.0569
 138   2.0000      -0.547998       -14.9118
 139   2.0000      -0.541788       -14.7428
 140   2.0000      -0.535901       -14.5826
 141   2.0000      -0.533242       -14.5103
 142   2.0000      -0.530404       -14.4330
 143   2.0000      -0.529602       -14.4112
 144   2.0000      -0.528520       -14.3818
 145   2.0000      -0.524557       -14.2739
 146   2.0000      -0.524052       -14.2602
 147   2.0000      -0.521397       -14.1879
 148   2.0000      -0.519666       -14.1408
 149   2.0000      -0.517232       -14.0746
 150   2.0000      -0.516457       -14.0535
 151   2.0000      -0.508412       -13.8346
 152   2.0000      -0.504690       -13.7333
 153   2.0000      -0.504111       -13.7176
 154   2.0000      -0.496352       -13.5064
 155   2.0000      -0.490056       -13.3351
 156   2.0000      -0.487610       -13.2685
 157   2.0000      -0.484253       -13.1772
 158   2.0000      -0.482383       -13.1263
 159   2.0000      -0.475414       -12.9367
 160   2.0000      -0.470296       -12.7974
 161   2.0000      -0.467707       -12.7270
 162   2.0000      -0.465686       -12.6720
 163   2.0000      -0.463709       -12.6182
 164   2.0000      -0.462290       -12.5795
 165   2.0000      -0.461714       -12.5639
 166   2.0000      -0.460834       -12.5399
 167   2.0000      -0.460597       -12.5335
 168   2.0000      -0.458753       -12.4833
 169   2.0000      -0.457106       -12.4385
 170   2.0000      -0.456190       -12.4136
 171   2.0000      -0.455303       -12.3894
 172   2.0000      -0.453938       -12.3523
 173   2.0000      -0.453399       -12.3376
 174   2.0000      -0.452633       -12.3168
 175   2.0000      -0.450632       -12.2623
 176   2.0000      -0.449564       -12.2333
 177   2.0000      -0.448467       -12.2034
 178   2.0000      -0.448334       -12.1998
 179   2.0000      -0.446978       -12.1629
 180   2.0000      -0.442618       -12.0443
 181   2.0000      -0.441348       -12.0097
 182   2.0000      -0.440357       -11.9827
 183   2.0000      -0.436897       -11.8886
 184   2.0000      -0.435782       -11.8582
 185   2.0000      -0.435486       -11.8502
 186   2.0000      -0.434642       -11.8272
 187   2.0000      -0.431874       -11.7519
 188   2.0000      -0.429835       -11.6964
 189   2.0000      -0.428225       -11.6526
 190   2.0000      -0.425107       -11.5678
 191   2.0000      -0.419196       -11.4069
 192   2.0000      -0.416933       -11.3453
 193   2.0000      -0.411505       -11.1976
 194   2.0000      -0.397555       -10.8180
 195   2.0000      -0.388850       -10.5811
 196   2.0000      -0.379025       -10.3138
 197   2.0000      -0.370951       -10.0941
 198   2.0000      -0.367626       -10.0036
 199   2.0000      -0.364755        -9.9255
 200   2.0000      -0.354726        -9.6526
 201   2.0000      -0.352493        -9.5918
 202   2.0000      -0.342882        -9.3303
 203   2.0000      -0.341083        -9.2814
 204   2.0000      -0.332500        -9.0478
 205   2.0000      -0.321680        -8.7534
 206   2.0000      -0.307047        -8.3552
 207   2.0000      -0.296399        -8.0654
 208   2.0000      -0.287614        -7.8264
 209   2.0000      -0.282305        -7.6819
 210   2.0000      -0.233485        -6.3534
 211   0.0000      -0.105996        -2.8843
 212   0.0000      -0.103054        -2.8042
 213   0.0000      -0.090511        -2.4629
 214   0.0000      -0.084797        -2.3075
 215   0.0000      -0.037982        -1.0335

MULLIKEN ATOMIC CHARGES
-----------------------
   0 C :    0.048167
   1 C :   -0.056838
   2 C :   -0.055615
   3 C :   -0.190101
   4 N :    0.179687
   5 C :   -0.067114
   6 C :   -0.174066
   7 N :    0.197426
   8 C :    0.018828
   9 C :    0.002597
  10 C :    0.148792
  11 O :   -0.119999
  12 C :   -0.154170
  13 C :    0.290637
  14 C :   -0.325637
  15 C :   -0.190217
  16 N :    0.168852
  17 C :   -0.193207
  18 N :    0.173916
  19 C :    0.018028
  20 C :    0.064976
  21 C :   -0.110842
  22 C :    0.132136
  23 C :   -0.130271
  24 C :    0.080357
  25 C :    0.019461
  26 C :    0.036331
  27 C :    0.056373
  28 N :   -0.018479
  29 C :    0.090590
  30 C :   -0.132643
  31 C :    0.058480
  32 N :   -0.048839
  33 C :    0.086270
  34 C :   -0.202570
  35 C :    0.076177
  36 C :   -0.052212
  37 C :    0.076827
  38 C :   -0.141621
  39 C :    0.140600
  40 C :   -0.120989
  41 C :    0.075629
  42 C :    0.043104
  43 C :   -0.022595
  44 C :    0.053399
  45 C :   -0.129605
  46 C :    0.144150
  47 O :   -0.129257
  48 C :    0.008318
  49 C :   -0.040022
  50 C :   -0.067457
  51 C :   -0.074887
  52 C :   -0.007479
  53 C :    0.015577
  54 C :    0.279882
  55 C :   -0.291315
  56 C :   -0.212768
  57 N :    0.187098
  58 C :   -0.168444
  59 N :    0.131544
  60 C :   -0.158526
  61 N :    0.192965
  62 C :   -0.178917
  63 N :    0.191817
  64 H :    0.016287
  65 H :    0.003611
  66 H :    0.040137
  67 H :   -0.003427
  68 H :    0.053754
  69 H :    0.050339
  70 H :   -0.011228
  71 H :   -0.006152
  72 H :   -0.025149
  73 H :    0.129929
  74 H :   -0.029204
  75 H :    0.133063
  76 H :   -0.041248
  77 H :   -0.005667
  78 H :    0.004553
  79 H :   -0.009548
  80 H :    0.054299
  81 H :    0.051923
  82 H :   -0.002838
  83 H :   -0.003105
  84 H :    0.028577
  85 H :    0.015929
  86 H :    0.014755
  87 H :    0.018120
Sum of atomic charges:    0.0000000

LOEWDIN ATOMIC CHARGES
----------------------
   0 C :   -0.004330
   1 C :    0.030726
   2 C :   -0.036112
   3 C :   -0.025512
   4 N :   -0.035718
   5 C :   -0.021276
   6 C :   -0.030659
   7 N :   -0.019780
   8 C :    0.051359
   9 C :   -0.016993
  10 C :    0.080350
  11 O :   -0.120935
  12 C :   -0.086006
  13 C :    0.072018
  14 C :   -0.126319
  15 C :   -0.022458
  16 N :   -0.039245
  17 C :   -0.020883
  18 N :   -0.034217
  19 C :    0.084632
  20 C :   -0.040185
  21 C :    0.019755
  22 C :   -0.025859
  23 C :   -0.002265
  24 C :   -0.028679
  25 C :   -0.024648
  26 C :   -0.022026
  27 C :   -0.015833
  28 N :    0.087413
  29 C :   -0.031511
  30 C :   -0.073699
  31 C :    0.001860
  32 N :    0.062479
  33 C :   -0.038838
  34 C :   -0.110554
  35 C :   -0.010693
  36 C :   -0.038124
  37 C :   -0.025801
  38 C :   -0.017281
  39 C :   -0.028298
  40 C :    0.021080
  41 C :   -0.038342
  42 C :    0.056314
  43 C :   -0.046460
  44 C :    0.081248
  45 C :   -0.103505
  46 C :    0.080789
  47 O :   -0.132924
  48 C :   -0.030303
  49 C :    0.045145
  50 C :   -0.033345
  51 C :   -0.029330
  52 C :    0.038249
  53 C :    0.005069
  54 C :    0.061632
  55 C :   -0.117811
  56 C :   -0.022406
  57 N :   -0.036771
  58 C :   -0.006819
  59 N :   -0.059109
  60 C :   -0.022265
  61 N :   -0.017150
  62 C :   -0.032304
  63 N :   -0.019577
  64 H :    0.050234
  65 H :    0.049236
  66 H :    0.048604
  67 H :    0.026492
  68 H :    0.057714
  69 H :    0.056813
  70 H :    0.023152
  71 H :    0.023077
  72 H :    0.030663
  73 H :    0.093175
  74 H :    0.029743
  75 H :    0.083314
  76 H :    0.018344
  77 H :    0.040996
  78 H :    0.023182
  79 H :    0.025572
  80 H :    0.059214
  81 H :    0.057115
  82 H :    0.024876
  83 H :    0.037432
  84 H :    0.034489
  85 H :    0.045445
  86 H :    0.053552
  87 H :    0.050607

  Mayer bond orders larger than 0.100000
B(  0-C ,  1-C ) :   1.3398 B(  0-C ,  9-C ) :   1.3407 B(  0-C , 13-C ) :   0.9682
B(  1-C ,  2-C ) :   1.3882 B(  1-C , 64-H ) :   0.9917 B(  2-C ,  3-C ) :   1.0920
B(  2-C ,  5-C ) :   1.3936 B(  3-C ,  4-N ) :   3.0175 B(  5-C ,  6-C ) :   1.1121
B(  5-C ,  8-C ) :   1.3772 B(  6-C ,  7-N ) :   2.9765 B(  8-C ,  9-C ) :   1.3771
B(  8-C , 65-H ) :   1.0016 B(  9-C , 10-C ) :   0.8970 B( 10-C , 11-O ) :   2.2704
B( 10-C , 12-C ) :   0.9187 B( 12-C , 13-C ) :   1.0387 B( 12-C , 19-C ) :   1.6908
B( 13-C , 14-C ) :   1.6814 B( 14-C , 15-C ) :   1.1314 B( 14-C , 17-C ) :   1.1430
B( 15-C , 16-N ) :   2.9829 B( 17-C , 18-N ) :   2.9977 B( 19-C , 20-C ) :   1.0416
B( 19-C , 66-H ) :   0.9548 B( 20-C , 21-C ) :   1.6964 B( 20-C , 24-C ) :   1.0689
B( 21-C , 22-C ) :   1.0400 B( 21-C , 67-H ) :   0.9990 B( 22-C , 23-C ) :   1.0389
B( 22-C , 68-H ) :   0.8988 B( 22-C , 69-H ) :   0.8946 B( 23-C , 24-C ) :   1.7666
B( 23-C , 70-H ) :   0.9925 B( 24-C , 25-C ) :   1.0343 B( 25-C , 26-C ) :   1.7340
B( 25-C , 71-H ) :   0.9393 B( 26-C , 27-C ) :   1.1071 B( 26-C , 72-H ) :   0.9642
B( 27-C , 28-N ) :   1.1882 B( 27-C , 34-C ) :   1.3690 B( 28-N , 29-C ) :   1.1688
B( 28-N , 73-H ) :   0.9296 B( 29-C , 30-C ) :   1.2116 B( 29-C , 33-C ) :   1.3456
B( 30-C , 31-C ) :   1.3846 B( 30-C , 74-H ) :   1.0556 B( 31-C , 32-N ) :   1.1838
B( 31-C , 35-C ) :   1.1300 B( 32-N , 33-C ) :   1.1595 B( 32-N , 75-H ) :   0.9182
B( 33-C , 34-C ) :   1.2253 B( 34-C , 76-H ) :   1.0488 B( 35-C , 36-C ) :   1.7607
B( 35-C , 77-H ) :   0.9615 B( 36-C , 37-C ) :   1.0043 B( 36-C , 78-H ) :   0.9363
B( 37-C , 38-C ) :   1.7790 B( 37-C , 41-C ) :   1.0642 B( 38-C , 39-C ) :   1.0324
B( 38-C , 79-H ) :   1.0034 B( 39-C , 40-C ) :   1.0412 B( 39-C , 80-H ) :   0.8926
B( 39-C , 81-H ) :   0.8975 B( 40-C , 41-C ) :   1.6508 B( 40-C , 82-H ) :   0.9961
B( 41-C , 42-C ) :   1.0958 B( 42-C , 43-C ) :   1.6288 B( 42-C , 83-H ) :   0.9815
B( 43-C , 44-C ) :   1.1498 B( 43-C , 84-H ) :   0.9406 B( 44-C , 45-C ) :   1.5766
B( 44-C , 85-H ) :   0.9614 B( 45-C , 46-C ) :   0.9571 B( 45-C , 54-C ) :   1.0466
B( 46-C , 47-O ) :   2.2783 B( 46-C , 48-C ) :   0.8963 B( 48-C , 49-C ) :   1.3684
B( 48-C , 53-C ) :   1.3315 B( 49-C , 50-C ) :   1.3586 B( 49-C , 86-H ) :   1.0147
B( 50-C , 51-C ) :   1.4010 B( 50-C , 62-C ) :   1.0884 B( 51-C , 52-C ) :   1.3954
B( 51-C , 60-C ) :   1.0898 B( 52-C , 53-C ) :   1.3747 B( 52-C , 87-H ) :   0.9789
B( 53-C , 54-C ) :   0.9725 B( 54-C , 55-C ) :   1.6567 B( 55-C , 56-C ) :   1.1598
B( 55-C , 58-C ) :   1.1474 B( 56-C , 57-N ) :   2.9948 B( 58-C , 59-N ) :   2.9273
B( 60-C , 61-N ) :   2.9971 B( 62-C , 63-N ) :   3.0432

-----------------------------------------------------------------------------
         ABSORPTION SPECTRUM VIA TRANSITION ELECTRIC DIPOLE MOMENTS
-----------------------------------------------------------------------------
State   Energy  Wavelength   fosc         T2         TX        TY        TZ
        (cm-1)    (nm)                  (au**2)     (au)      (au)      (au)
-----------------------------------------------------------------------------
   0   10455.9    956.4   0.036714150   1.15597  -0.09999  -0.30977  -1.02470
   1   11486.2    870.6   0.023668191   0.67837   0.40958   0.56256   0.44061
   2   14090.4    709.7   0.053494494   1.24986  -0.69125  -0.34186  -0.80942
   3   14985.7    667.3   0.005465229   0.12006  -0.29158   0.09110   0.16354
   4   21874.9    457.1   0.249440600   3.75403   1.33636  -1.21235   0.70596
   5   22330.1    447.8   0.023596425   0.34788   0.34644  -0.30364   0.36832
   6   22754.0    439.5   0.041743726   0.60396  -0.46492   0.61901   0.06815
   7   24001.8    416.6   0.000683380   0.00937  -0.02527   0.09126   0.02019
   8   24648.6    405.7   0.066031552   0.88193  -0.34844   0.32728  -0.80834
   9   24921.9    401.3   0.023323799   0.30810   0.32561  -0.44442   0.06757
  10   25708.6    389.0   0.041619091   0.53295  -0.26773   0.34979   0.58217
  11   26365.2    379.3   0.433653179   5.41485   2.14253  -0.59389   0.68682
  12   26907.9    371.6   0.136115929   1.66535   0.26280   1.17457   0.46547
  13   27376.5    365.3   0.006747339   0.08114  -0.27054   0.08510  -0.02652
  14   27409.1    364.8   0.287611504   3.45451  -1.50037   0.79576  -0.75510
  15   27851.9    359.0   0.002305682   0.02725  -0.03487  -0.00756  -0.16118
  16   28164.7    355.1   0.145132990   1.69644  -1.00815   0.23898  -0.78928
  17   28250.0    354.0   0.016562495   0.19301   0.25701  -0.23293  -0.26964
  18   28835.1    346.8   0.108205785   1.23539   0.85887  -0.15457   0.68836
  19   28932.2    345.6   0.063414864   0.72158  -0.37684   0.50923  -0.56591
  20   29245.7    341.9   0.093273061   1.04995  -0.83361   0.30847  -0.50979
  21   29541.6    338.5   0.025345817   0.28245   0.52187   0.09895  -0.01763
  22   29656.9    337.2   0.074137744   0.82298  -0.25572   0.78834  -0.36893
  23   30440.2    328.5   0.038241814   0.41359   0.39186   0.44691   0.24557
  24   30793.6    324.7   0.046093741   0.49278  -0.49875  -0.49164  -0.04811
  25   31426.2    318.2   0.088295485   0.92496   0.95358   0.11395  -0.05159
  26   31948.9    313.0   0.007424349   0.07650   0.15407  -0.05049   0.22409
  27   32011.8    312.4   0.013038164   0.13409  -0.16557  -0.32631  -0.01381
  28   32379.1    308.8   0.233472049   2.37381   1.14492  -0.84490   0.59086
  29   32597.9    306.8   0.112695568   1.13813  -0.86888   0.34479  -0.51411
  30   33015.1    302.9   0.156404145   1.55959   0.73799  -0.99375   0.16558
  31   33122.0    301.9   0.224538313   2.23177   0.82838   1.22986  -0.18163
  32   34346.8    291.1   0.095438762   0.91477  -0.76920   0.40981  -0.39391
  33   34975.4    285.9   0.526349755   4.95435   2.21540   0.18281  -0.11382
  34   35508.5    281.6   0.253593679   2.35116   1.48465   0.03228   0.38202
  35   35806.3    279.3   0.053030080   0.48757  -0.49733  -0.47753  -0.11042
  36   35967.8    278.0   0.015178295   0.13893   0.29520  -0.22740  -0.00844
  37   36198.5    276.3   0.012631354   0.11488   0.24655  -0.22944  -0.03802
  38   36343.2    275.2   0.424519594   3.84547   1.94390   0.25418   0.04602
  39   36769.5    272.0   0.063737177   0.57066   0.72185   0.21919  -0.03936
  40   37642.6    265.7   0.048829261   0.42705  -0.59774   0.23520  -0.12013
  41   37768.3    264.8   0.136591581   1.19062  -1.03761  -0.31923   0.10990
  42   38100.0    262.5   0.060960940   0.52675  -0.55084   0.24611  -0.40343
  43   38237.5    261.5   0.091429229   0.78717  -0.72194   0.10038  -0.50586
  44   38447.8    260.1   0.029490150   0.25251  -0.38552  -0.28633   0.14799
  45   38513.3    259.7   0.024772291   0.21175   0.00059   0.39364  -0.23832
  46   38653.2    258.7   0.093799438   0.79890   0.61912  -0.57871   0.28405
  47   39257.4    254.7   0.115443472   0.96811  -0.14732  -0.81020   0.53849
  48   39397.8    253.8   0.029709724   0.24826   0.37536   0.18176   0.27263
  49   39514.8    253.1   0.021891359   0.18238  -0.21278   0.25962  -0.26402
  50   39924.0    250.5   0.007118178   0.05870   0.21206   0.09464   0.06905
  51   40254.3    248.4   0.118250507   0.96709   0.78264  -0.41995   0.42215

FINAL SINGLE POINT ENERGY     -2690.234392897507

DIPOLE MOMENT
-------------
                                X             Y             Z
Electronic contribution:    -17.35154      -5.27205      -5.88730
Nuclear contribution   :     19.02996       6.01346       6.62581
                        -----------------------------------------
Total Dipole Moment    :      1.67842       0.74142       0.73850
                        -----------------------------------------
Magnitude (a.u.)       :      1.97793
Magnitude (Debye)      :      5.02749

Rotational constants in cm-1:     0.001939     0.001030     0.000851
Rotational constants in MHz :    58.122503    30.871334    25.509231

                             ****ORCA TERMINATED NORMALLY****
TOTAL RUN TIME: 0 days 0 hours 14 minutes 6 seconds 420 msec
