                         Program Version 4.2.0 -  RELEASE  -
|  1> # ORCA input file
|  2> # SCF done       -208.623260239971          0.000318139585
|  3> ! CAM-B3LYP def2-SVP def2/J RIJCOSX Grid4 TightSCF
|  4> %maxcore 5000
|  5> %tddft
|  6>     Mode sTDDFT
|  7>     Ethresh 5.0
|  8>     maxcore 5000
|  9> end
| 10>
| 11> %pal
| 12>   nprocs 6
| 13>   end
| 14> * xyz 0 1
| 15>    C       11.59603        -5.15488        -6.74744
| 16>    O       11.33215        -3.87500        -6.46023
| 17>    C       12.36149        -3.10835        -6.88849
| 18>    C       13.31025        -3.93271        -7.46482
| 19>    C       12.80940        -5.25104        -7.36895
| 20>    F       13.39770        -6.36567        -7.79333
| 21>    F       14.47488        -3.56361        -7.98852
| 22>    C       12.30558        -1.69277        -6.67963
| 23>    C       13.19196        -0.82216        -7.18673
| 24>    C       13.12398         0.60839        -6.97461
| 25>    C       12.83203         1.19986        -5.73853
| 26>    C       12.63668         0.59227        -4.40329
| 27>    O       12.67232        -0.56189        -4.05528
| 28>    N       12.40886         1.66005        -3.52185
| 29>    C       12.46383         2.89824        -4.16089
| 30>    O       12.30072         3.97470        -3.64826
| 31>    C       12.76747         2.59042        -5.57907
| 32>    C       12.99448         3.47080        -6.61852
| 33>    C       13.30928         2.89886        -7.84557
| 34>    C       13.37423         1.51527        -8.02554
| 35>    C       13.68249         1.10671        -9.40501
| 36>    O       13.75120         0.00253        -9.85842
| 37>    S       13.94082         2.58045       -10.41024
| 38>    C       13.59766         3.69862        -9.05003
| 39>    O       13.61035         4.88879        -9.14932
| 40>    C       12.16639         1.41074        -2.17357
| 41>    C       11.82929         2.32077        -1.25437
| 42>    C       11.55322         1.98771         0.12929
| 43>    C       11.97758         0.80773         0.69945
| 44>    C       11.61840         0.49844         2.02294
| 45>    C       11.87789        -0.62973         2.79574
| 46>    C       12.70140        -1.82978         2.47320
| 47>    C       12.31322        -2.51603         1.13897
| 48>    N       12.98030        -1.95740        -0.02745
| 49>    C       14.19766        -1.45503         2.54623
| 50>    N       15.00515        -2.65613         2.65406
| 51>    C       11.23030        -0.41618         4.07001
| 52>    C       11.16149        -1.18629         5.17260
| 53>    C       10.39161        -0.76506         6.37049
| 54>    C        9.76783         0.59268         6.27094
| 55>    C        9.86351         1.35891         5.16645
| 56>    C       10.57219         0.89500         4.03618
| 57>    C       10.81705         1.44178         2.78517
| 58>    C       10.43920         2.66518         2.19325
| 59>    C       10.80417         2.92412         0.90734
| 60>    C       11.20383        -0.84771         7.63717
| 61>    C       12.52985        -0.77615         7.66464
| 62>    C       13.31896        -0.80589         8.88748
| 63>    C       14.32556         0.13991         9.09044
| 64>    C       14.77237         1.22813         8.20173
| 65>    O       14.39751         1.52377         7.09439
| 66>    N       15.78167         1.90505         8.90525
| 67>    C       16.02623         1.33748        10.16220
| 68>    O       16.83612         1.71610        10.96651
| 69>    C       15.08191         0.20155        10.26709
| 70>    C       14.89067        -0.69320        11.30140
| 71>    C       13.92358        -1.67125        11.09605
| 72>    C       13.15376        -1.74100         9.92652
| 73>    C       12.26239        -2.91161         9.87494
| 74>    O       11.54990        -3.28014         8.98562
| 75>    S       12.40738        -3.83114        11.41636
| 76>    C       13.64829        -2.72148        12.08927
| 77>    O       14.14211        -2.85784        13.16840
| 78>    C       16.41165         3.00952         8.34866
| 79>    C       17.37708         3.73189         8.93210
| 80>    C       17.97536         4.86718         8.29979
| 81>    O       17.59999         5.27731         7.06651
| 82>    C       18.32457         6.36722         6.72438
| 83>    C       19.18802         6.66875         7.75934
| 84>    C       18.96606         5.71117         8.76619
| 85>    F       19.58155         5.62223         9.94414
| 86>    F       20.05903         7.67802         7.78359
| 87>    C       18.14378         7.02775         5.46017
| 88>    C       17.27361         6.63756         4.53232
| 89>    H       10.87456        -5.89871        -6.47652
| 90>    H       11.46082        -1.36172        -6.09396
| 91>    H       13.97491        -1.16726        -7.84632
| 92>    H       12.94381         4.54012        -6.49090
| 93>    H       12.25926         0.35791        -1.94372
| 94>    H       11.70750         3.35528        -1.53858
| 95>    H       12.57243         0.09477         0.15149
| 96>    H       12.53456        -2.57195         3.25936
| 97>    H       11.23684        -2.38866         0.99704
| 98>    H       12.50949        -3.59354         1.25136
| 99>    H       13.94765        -2.25810        -0.07288
|100>    H       12.52492        -2.27127        -0.87694
|101>    H       14.35643        -0.87140         3.45765
|102>    H       14.44688        -0.81278         1.68933
|103>    H       15.96758        -2.42506         2.86927
|104>    H       14.99613        -3.18308         1.78816
|105>    H       11.64564        -2.15091         5.23617
|106>    H        9.57649        -1.49906         6.49127
|107>    H        9.23444         0.93518         7.14434
|108>    H        9.39933         2.33367         5.13253
|109>    H        9.86347         3.38065         2.76150
|110>    H       10.51585         3.85437         0.43972
|111>    H       10.63361        -0.92388         8.55168
|112>    H       13.08855        -0.60357         6.75460
|113>    H       15.46260        -0.65441        12.21457
|114>    H       16.03506         3.24801         7.36282
|115>    H       17.75155         3.49300         9.91501
|116>    H       18.78269         7.88689         5.31363
|117>    H       16.64038         5.78082         4.68549
|118>    H       17.17367         7.16387         3.60045
|119> *
|120>
|121>                          ****END OF INPUT****

CARTESIAN COORDINATES (ANGSTROEM)
---------------------------------
  C     11.596030   -5.154880   -6.747440
  O     11.332150   -3.875000   -6.460230
  C     12.361490   -3.108350   -6.888490
  C     13.310250   -3.932710   -7.464820
  C     12.809400   -5.251040   -7.368950
  F     13.397700   -6.365670   -7.793330
  F     14.474880   -3.563610   -7.988520
  C     12.305580   -1.692770   -6.679630
  C     13.191960   -0.822160   -7.186730
  C     13.123980    0.608390   -6.974610
  C     12.832030    1.199860   -5.738530
  C     12.636680    0.592270   -4.403290
  O     12.672320   -0.561890   -4.055280
  N     12.408860    1.660050   -3.521850
  C     12.463830    2.898240   -4.160890
  O     12.300720    3.974700   -3.648260
  C     12.767470    2.590420   -5.579070
  C     12.994480    3.470800   -6.618520
  C     13.309280    2.898860   -7.845570
  C     13.374230    1.515270   -8.025540
  C     13.682490    1.106710   -9.405010
  O     13.751200    0.002530   -9.858420
  S     13.940820    2.580450  -10.410240
  C     13.597660    3.698620   -9.050030
  O     13.610350    4.888790   -9.149320
  C     12.166390    1.410740   -2.173570
  C     11.829290    2.320770   -1.254370
  C     11.553220    1.987710    0.129290
  C     11.977580    0.807730    0.699450
  C     11.618400    0.498440    2.022940
  C     11.877890   -0.629730    2.795740
  C     12.701400   -1.829780    2.473200
  C     12.313220   -2.516030    1.138970
  N     12.980300   -1.957400   -0.027450
  C     14.197660   -1.455030    2.546230
  N     15.005150   -2.656130    2.654060
  C     11.230300   -0.416180    4.070010
  C     11.161490   -1.186290    5.172600
  C     10.391610   -0.765060    6.370490
  C      9.767830    0.592680    6.270940
  C      9.863510    1.358910    5.166450
  C     10.572190    0.895000    4.036180
  C     10.817050    1.441780    2.785170
  C     10.439200    2.665180    2.193250
  C     10.804170    2.924120    0.907340
  C     11.203830   -0.847710    7.637170
  C     12.529850   -0.776150    7.664640
  C     13.318960   -0.805890    8.887480
  C     14.325560    0.139910    9.090440
  C     14.772370    1.228130    8.201730
  O     14.397510    1.523770    7.094390
  N     15.781670    1.905050    8.905250
  C     16.026230    1.337480   10.162200
  O     16.836120    1.716100   10.966510
  C     15.081910    0.201550   10.267090
  C     14.890670   -0.693200   11.301400
  C     13.923580   -1.671250   11.096050
  C     13.153760   -1.741000    9.926520
  C     12.262390   -2.911610    9.874940
  O     11.549900   -3.280140    8.985620
  S     12.407380   -3.831140   11.416360
  C     13.648290   -2.721480   12.089270
  O     14.142110   -2.857840   13.168400
  C     16.411650    3.009520    8.348660
  C     17.377080    3.731890    8.932100
  C     17.975360    4.867180    8.299790
  O     17.599990    5.277310    7.066510
  C     18.324570    6.367220    6.724380
  C     19.188020    6.668750    7.759340
  C     18.966060    5.711170    8.766190
  F     19.581550    5.622230    9.944140
  F     20.059030    7.678020    7.783590
  C     18.143780    7.027750    5.460170
  C     17.273610    6.637560    4.532320
  H     10.874560   -5.898710   -6.476520
  H     11.460820   -1.361720   -6.093960
  H     13.974910   -1.167260   -7.846320
  H     12.943810    4.540120   -6.490900
  H     12.259260    0.357910   -1.943720
  H     11.707500    3.355280   -1.538580
  H     12.572430    0.094770    0.151490
  H     12.534560   -2.571950    3.259360
  H     11.236840   -2.388660    0.997040
  H     12.509490   -3.593540    1.251360
  H     13.947650   -2.258100   -0.072880
  H     12.524920   -2.271270   -0.876940
  H     14.356430   -0.871400    3.457650
  H     14.446880   -0.812780    1.689330
  H     15.967580   -2.425060    2.869270
  H     14.996130   -3.183080    1.788160
  H     11.645640   -2.150910    5.236170
  H      9.576490   -1.499060    6.491270
  H      9.234440    0.935180    7.144340
  H      9.399330    2.333670    5.132530
  H      9.863470    3.380650    2.761500
  H     10.515850    3.854370    0.439720
  H     10.633610   -0.923880    8.551680
  H     13.088550   -0.603570    6.754600
  H     15.462600   -0.654410   12.214570
  H     16.035060    3.248010    7.362820
  H     17.751550    3.493000    9.915010
  H     18.782690    7.886890    5.313630
  H     16.640380    5.780820    4.685490
  H     17.173670    7.163870    3.600450

 Total Charge           Charge          ....    0
 Multiplicity           Mult            ....    1
 Number of Electrons    NEL             ....  530
 Basis Dimension        Dim             .... 1194

ORBITAL ENERGIES
----------------

  NO   OCC          E(Eh)            E(eV)
   0   2.0000     -88.954966     -2420.5877
   1   2.0000     -88.952387     -2420.5175
   2   2.0000     -24.807265      -675.0400
   3   2.0000     -24.800471      -674.8551
   4   2.0000     -24.795577      -674.7219
   5   2.0000     -24.795321      -674.7150
   6   2.0000     -19.310950      -525.4777
   7   2.0000     -19.299282      -525.1601
   8   2.0000     -19.248031      -523.7655
   9   2.0000     -19.246351      -523.7198
  10   2.0000     -19.246052      -523.7117
  11   2.0000     -19.245513      -523.6970
  12   2.0000     -19.238814      -523.5148
  13   2.0000     -19.238137      -523.4963
  14   2.0000     -19.233818      -523.3788
  15   2.0000     -19.231854      -523.3253
  16   2.0000     -14.488434      -394.2503
  17   2.0000     -14.480729      -394.0407
  18   2.0000     -14.391160      -391.6034
  19   2.0000     -14.379676      -391.2909
  20   2.0000     -10.418131      -283.4918
  21   2.0000     -10.416977      -283.4603
  22   2.0000     -10.414346      -283.3888
  23   2.0000     -10.411405      -283.3087
  24   2.0000     -10.411029      -283.2985
  25   2.0000     -10.409139      -283.2471
  26   2.0000     -10.408155      -283.2203
  27   2.0000     -10.406718      -283.1812
  28   2.0000     -10.371547      -282.2241
  29   2.0000     -10.369499      -282.1684
  30   2.0000     -10.360605      -281.9264
  31   2.0000     -10.360070      -281.9118
  32   2.0000     -10.346080      -281.5312
  33   2.0000     -10.342037      -281.4211
  34   2.0000     -10.339436      -281.3504
  35   2.0000     -10.338599      -281.3276
  36   2.0000     -10.337679      -281.3025
  37   2.0000     -10.336394      -281.2676
  38   2.0000     -10.331932      -281.1462
  39   2.0000     -10.331250      -281.1276
  40   2.0000     -10.328849      -281.0623
  41   2.0000     -10.328643      -281.0567
  42   2.0000     -10.326471      -280.9976
  43   2.0000     -10.325599      -280.9738
  44   2.0000     -10.325258      -280.9645
  45   2.0000     -10.324972      -280.9568
  46   2.0000     -10.324735      -280.9503
  47   2.0000     -10.322912      -280.9007
  48   2.0000     -10.321742      -280.8689
  49   2.0000     -10.304442      -280.3981
  50   2.0000     -10.303663      -280.3769
  51   2.0000     -10.296188      -280.1735
  52   2.0000     -10.292965      -280.0858
  53   2.0000     -10.292571      -280.0751
  54   2.0000     -10.289885      -280.0020
  55   2.0000     -10.287009      -279.9238
  56   2.0000     -10.285332      -279.8781
  57   2.0000     -10.283576      -279.8303
  58   2.0000     -10.283145      -279.8186
  59   2.0000     -10.276988      -279.6510
  60   2.0000     -10.268019      -279.4070
  61   2.0000     -10.265520      -279.3390
  62   2.0000     -10.265410      -279.3360
  63   2.0000     -10.264766      -279.3185
  64   2.0000     -10.264020      -279.2982
  65   2.0000     -10.261489      -279.2293
  66   2.0000     -10.259393      -279.1723
  67   2.0000     -10.256649      -279.0976
  68   2.0000     -10.255453      -279.0650
  69   2.0000     -10.251954      -278.9698
  70   2.0000     -10.251539      -278.9586
  71   2.0000     -10.251036      -278.9449
  72   2.0000     -10.248259      -278.8693
  73   2.0000     -10.241553      -278.6868
  74   2.0000      -8.054161      -219.1649
  75   2.0000      -8.051605      -219.0953
  76   2.0000      -6.023016      -163.8946
  77   2.0000      -6.020471      -163.8253
  78   2.0000      -6.019753      -163.8058
  79   2.0000      -6.017208      -163.7366
  80   2.0000      -6.015244      -163.6831
  81   2.0000      -6.012650      -163.6125
  82   2.0000      -1.323743       -36.0209
  83   2.0000      -1.313257       -35.7355
  84   2.0000      -1.313098       -35.7312
  85   2.0000      -1.304365       -35.4936
  86   2.0000      -1.231488       -33.5105
  87   2.0000      -1.218579       -33.1592
  88   2.0000      -1.183960       -32.2172
  89   2.0000      -1.178907       -32.0797
  90   2.0000      -1.171246       -31.8712
  91   2.0000      -1.169998       -31.8373
  92   2.0000      -1.167061       -31.7573
  93   2.0000      -1.165815       -31.7234
  94   2.0000      -1.160289       -31.5731
  95   2.0000      -1.155058       -31.4307
  96   2.0000      -1.077154       -29.3109
  97   2.0000      -1.070605       -29.1327
  98   2.0000      -1.016943       -27.6724
  99   2.0000      -1.013652       -27.5829
 100   2.0000      -0.979156       -26.6442
 101   2.0000      -0.968139       -26.3444
 102   2.0000      -0.959468       -26.1085
 103   2.0000      -0.955213       -25.9927
 104   2.0000      -0.951404       -25.8890
 105   2.0000      -0.941393       -25.6166
 106   2.0000      -0.932916       -25.3859
 107   2.0000      -0.922845       -25.1119
 108   2.0000      -0.915711       -24.9178
 109   2.0000      -0.913019       -24.8445
 110   2.0000      -0.906024       -24.6542
 111   2.0000      -0.904464       -24.6117
 112   2.0000      -0.894723       -24.3467
 113   2.0000      -0.893283       -24.3075
 114   2.0000      -0.889953       -24.2168
 115   2.0000      -0.868032       -23.6203
 116   2.0000      -0.864486       -23.5239
 117   2.0000      -0.856291       -23.3009
 118   2.0000      -0.835752       -22.7420
 119   2.0000      -0.832380       -22.6502
 120   2.0000      -0.829422       -22.5697
 121   2.0000      -0.820048       -22.3146
 122   2.0000      -0.815703       -22.1964
 123   2.0000      -0.801064       -21.7980
 124   2.0000      -0.799773       -21.7629
 125   2.0000      -0.795367       -21.6430
 126   2.0000      -0.779260       -21.2047
 127   2.0000      -0.771239       -20.9865
 128   2.0000      -0.754332       -20.5264
 129   2.0000      -0.752702       -20.4821
 130   2.0000      -0.745143       -20.2764
 131   2.0000      -0.738987       -20.1088
 132   2.0000      -0.731933       -19.9169
 133   2.0000      -0.728961       -19.8360
 134   2.0000      -0.723730       -19.6937
 135   2.0000      -0.717539       -19.5252
 136   2.0000      -0.711203       -19.3528
 137   2.0000      -0.702103       -19.1052
 138   2.0000      -0.697334       -18.9754
 139   2.0000      -0.696584       -18.9550
 140   2.0000      -0.691112       -18.8061
 141   2.0000      -0.683429       -18.5971
 142   2.0000      -0.677502       -18.4358
 143   2.0000      -0.672078       -18.2882
 144   2.0000      -0.664604       -18.0848
 145   2.0000      -0.663799       -18.0629
 146   2.0000      -0.662822       -18.0363
 147   2.0000      -0.649934       -17.6856
 148   2.0000      -0.643220       -17.5029
 149   2.0000      -0.642247       -17.4764
 150   2.0000      -0.639670       -17.4063
 151   2.0000      -0.629012       -17.1163
 152   2.0000      -0.627115       -17.0647
 153   2.0000      -0.619247       -16.8506
 154   2.0000      -0.617413       -16.8007
 155   2.0000      -0.615935       -16.7604
 156   2.0000      -0.614061       -16.7095
 157   2.0000      -0.610798       -16.6207
 158   2.0000      -0.607759       -16.5380
 159   2.0000      -0.599945       -16.3253
 160   2.0000      -0.598253       -16.2793
 161   2.0000      -0.594158       -16.1679
 162   2.0000      -0.592480       -16.1222
 163   2.0000      -0.591145       -16.0859
 164   2.0000      -0.590757       -16.0753
 165   2.0000      -0.584974       -15.9179
 166   2.0000      -0.583332       -15.8733
 167   2.0000      -0.580285       -15.7904
 168   2.0000      -0.577208       -15.7066
 169   2.0000      -0.572450       -15.5772
 170   2.0000      -0.570056       -15.5120
 171   2.0000      -0.569384       -15.4937
 172   2.0000      -0.567369       -15.4389
 173   2.0000      -0.564983       -15.3740
 174   2.0000      -0.562458       -15.3053
 175   2.0000      -0.557548       -15.1717
 176   2.0000      -0.556270       -15.1369
 177   2.0000      -0.552935       -15.0461
 178   2.0000      -0.552723       -15.0403
 179   2.0000      -0.551914       -15.0183
 180   2.0000      -0.550701       -14.9853
 181   2.0000      -0.547640       -14.9020
 182   2.0000      -0.544946       -14.8287
 183   2.0000      -0.544200       -14.8084
 184   2.0000      -0.543599       -14.7921
 185   2.0000      -0.542278       -14.7561
 186   2.0000      -0.541471       -14.7342
 187   2.0000      -0.539379       -14.6772
 188   2.0000      -0.535445       -14.5702
 189   2.0000      -0.534800       -14.5526
 190   2.0000      -0.532267       -14.4837
 191   2.0000      -0.529527       -14.4092
 192   2.0000      -0.527847       -14.3635
 193   2.0000      -0.525428       -14.2976
 194   2.0000      -0.521922       -14.2022
 195   2.0000      -0.520660       -14.1679
 196   2.0000      -0.518925       -14.1207
 197   2.0000      -0.517768       -14.0892
 198   2.0000      -0.517613       -14.0850
 199   2.0000      -0.513500       -13.9731
 200   2.0000      -0.512432       -13.9440
 201   2.0000      -0.512287       -13.9401
 202   2.0000      -0.510907       -13.9025
 203   2.0000      -0.509236       -13.8570
 204   2.0000      -0.504836       -13.7373
 205   2.0000      -0.504247       -13.7213
 206   2.0000      -0.502861       -13.6835
 207   2.0000      -0.501120       -13.6362
 208   2.0000      -0.499573       -13.5941
 209   2.0000      -0.496414       -13.5081
 210   2.0000      -0.493225       -13.4213
 211   2.0000      -0.488638       -13.2965
 212   2.0000      -0.484675       -13.1887
 213   2.0000      -0.483745       -13.1634
 214   2.0000      -0.483312       -13.1516
 215   2.0000      -0.481156       -13.0929
 216   2.0000      -0.476576       -12.9683
 217   2.0000      -0.474609       -12.9148
 218   2.0000      -0.469846       -12.7852
 219   2.0000      -0.465642       -12.6708
 220   2.0000      -0.463457       -12.6113
 221   2.0000      -0.460074       -12.5192
 222   2.0000      -0.454691       -12.3728
 223   2.0000      -0.445807       -12.1310
 224   2.0000      -0.441805       -12.0221
 225   2.0000      -0.434145       -11.8137
 226   2.0000      -0.434017       -11.8102
 227   2.0000      -0.430549       -11.7158
 228   2.0000      -0.427472       -11.6321
 229   2.0000      -0.427375       -11.6295
 230   2.0000      -0.425085       -11.5672
 231   2.0000      -0.414819       -11.2878
 232   2.0000      -0.411604       -11.2003
 233   2.0000      -0.400993       -10.9116
 234   2.0000      -0.397749       -10.8233
 235   2.0000      -0.395595       -10.7647
 236   2.0000      -0.393183       -10.6991
 237   2.0000      -0.385985       -10.5032
 238   2.0000      -0.384409       -10.4603
 239   2.0000      -0.381113       -10.3706
 240   2.0000      -0.379007       -10.3133
 241   2.0000      -0.377624       -10.2757
 242   2.0000      -0.374855       -10.2003
 243   2.0000      -0.372077       -10.1247
 244   2.0000      -0.368758       -10.0344
 245   2.0000      -0.368298       -10.0219
 246   2.0000      -0.365205        -9.9377
 247   2.0000      -0.360642        -9.8136
 248   2.0000      -0.359779        -9.7901
 249   2.0000      -0.358277        -9.7492
 250   2.0000      -0.353696        -9.6245
 251   2.0000      -0.351067        -9.5530
 252   2.0000      -0.350536        -9.5386
 253   2.0000      -0.348980        -9.4962
 254   2.0000      -0.347359        -9.4521
 255   2.0000      -0.334490        -9.1019
 256   2.0000      -0.329218        -8.9585
 257   2.0000      -0.323752        -8.8097
 258   2.0000      -0.311751        -8.4832
 259   2.0000      -0.309389        -8.4189
 260   2.0000      -0.299742        -8.1564
 261   2.0000      -0.283577        -7.7165
 262   2.0000      -0.270574        -7.3627
 263   2.0000      -0.256695        -6.9850
 264   2.0000      -0.208808        -5.6819
 265   0.0000      -0.099720        -2.7135
 266   0.0000      -0.095974        -2.6116
 267   0.0000      -0.068162        -1.8548
 268   0.0000      -0.061499        -1.6735
 269   0.0000      -0.055421        -1.5081

MULLIKEN ATOMIC CHARGES
-----------------------
   0 C :    0.058673
   1 O :   -0.179685
   2 C :    0.067630
   3 C :    0.139684
   4 C :    0.213270
   5 F :   -0.166879
   6 F :   -0.159592
   7 C :    0.090916
   8 C :   -0.063141
   9 C :    0.043735
  10 C :   -0.035435
  11 C :    0.183770
  12 O :   -0.150758
  13 N :   -0.222059
  14 C :    0.210943
  15 O :   -0.138279
  16 C :    0.012512
  17 C :   -0.079622
  18 C :    0.052140
  19 C :    0.042509
  20 C :    0.033892
  21 O :   -0.125378
  22 S :    0.010290
  23 C :    0.048959
  24 O :   -0.119213
  25 C :    0.079329
  26 C :   -0.021129
  27 C :    0.107851
  28 C :   -0.076516
  29 C :    0.037704
  30 C :   -0.057339
  31 C :    0.000979
  32 C :    0.101279
  33 N :   -0.212042
  34 C :    0.102261
  35 N :   -0.211870
  36 C :    0.120166
  37 C :   -0.172084
  38 C :    0.161016
  39 C :   -0.044117
  40 C :    0.025697
  41 C :    0.013694
  42 C :    0.040064
  43 C :   -0.014136
  44 C :   -0.011577
  45 C :   -0.033999
  46 C :   -0.019550
  47 C :    0.047915
  48 C :   -0.020485
  49 C :    0.189766
  50 O :   -0.137044
  51 N :   -0.232802
  52 C :    0.215121
  53 O :   -0.138005
  54 C :    0.013041
  55 C :   -0.071207
  56 C :    0.052363
  57 C :    0.026856
  58 C :    0.027016
  59 O :   -0.122614
  60 S :    0.009310
  61 C :    0.046737
  62 O :   -0.118513
  63 C :    0.081618
  64 C :   -0.020336
  65 C :    0.081188
  66 O :   -0.207413
  67 C :    0.064569
  68 C :    0.163231
  69 C :    0.172110
  70 F :   -0.165556
  71 F :   -0.168613
  72 C :   -0.017424
  73 C :    0.002015
  74 H :    0.024706
  75 H :    0.004095
  76 H :    0.032498
  77 H :    0.019915
  78 H :    0.020696
  79 H :    0.010829
  80 H :   -0.041813
  81 H :   -0.027448
  82 H :    0.011978
  83 H :   -0.004812
  84 H :    0.089994
  85 H :    0.113188
  86 H :    0.001591
  87 H :   -0.000514
  88 H :    0.094132
  89 H :    0.077251
  90 H :    0.001837
  91 H :    0.046859
  92 H :   -0.020825
  93 H :   -0.039238
  94 H :   -0.041645
  95 H :   -0.032947
  96 H :    0.003786
  97 H :    0.041161
  98 H :    0.019698
  99 H :    0.039977
 100 H :    0.034632
 101 H :    0.004877
 102 H :    0.031347
 103 H :    0.026789
Sum of atomic charges:   -0.0000000

LOEWDIN ATOMIC CHARGES
----------------------
   0 C :    0.012868
   1 O :    0.032302
   2 C :   -0.009601
   3 C :    0.025883
   4 C :    0.010511
   5 F :   -0.044066
   6 F :   -0.033572
   7 C :    0.011031
   8 C :   -0.034285
   9 C :    0.035149
  10 C :   -0.040899
  11 C :    0.100103
  12 O :   -0.140199
  13 N :   -0.009457
  14 C :    0.096903
  15 O :   -0.129515
  16 C :   -0.023846
  17 C :    0.033955
  18 C :   -0.050095
  19 C :   -0.061231
  20 C :   -0.041567
  21 O :   -0.108747
  22 S :    0.298196
  23 C :   -0.046448
  24 O :   -0.110737
  25 C :    0.016974
  26 C :   -0.029086
  27 C :   -0.035987
  28 C :   -0.014019
  29 C :   -0.016268
  30 C :   -0.041334
  31 C :   -0.039528
  32 C :    0.022544
  33 N :   -0.088968
  34 C :    0.023355
  35 N :   -0.120506
  36 C :   -0.012807
  37 C :    0.056059
  38 C :   -0.030096
  39 C :   -0.039109
  40 C :   -0.013540
  41 C :   -0.040894
  42 C :   -0.025769
  43 C :   -0.017814
  44 C :   -0.024550
  45 C :    0.044097
  46 C :   -0.046925
  47 C :    0.041032
  48 C :   -0.037215
  49 C :    0.101466
  50 O :   -0.127630
  51 N :   -0.013115
  52 C :    0.100601
  53 O :   -0.126601
  54 C :   -0.026132
  55 C :    0.036125
  56 C :   -0.049815
  57 C :   -0.062197
  58 C :   -0.042839
  59 O :   -0.113265
  60 S :    0.299134
  61 C :   -0.046462
  62 O :   -0.110445
  63 C :    0.028591
  64 C :   -0.054453
  65 C :    0.000968
  66 O :    0.018890
  67 C :   -0.000425
  68 C :    0.016135
  69 C :    0.015961
  70 F :   -0.044192
  71 F :   -0.046724
  72 C :   -0.040012
  73 C :   -0.030569
  74 H :    0.031443
  75 H :    0.038729
  76 H :    0.035625
  77 H :    0.051771
  78 H :    0.030022
  79 H :    0.030607
  80 H :    0.014433
  81 H :    0.025301
  82 H :    0.025439
  83 H :    0.003473
  84 H :    0.049032
  85 H :    0.061909
  86 H :    0.022188
  87 H :    0.002830
  88 H :    0.055304
  89 H :    0.043663
  90 H :    0.031762
  91 H :    0.066944
  92 H :    0.021128
  93 H :    0.029436
  94 H :    0.024659
  95 H :    0.023775
  96 H :    0.025144
  97 H :    0.039849
  98 H :    0.051985
  99 H :    0.037243
 100 H :    0.044642
 101 H :    0.040398
 102 H :    0.027550
 103 H :    0.028434

  Mayer bond orders larger than 0.100000
B(  0-C ,  1-O ) :   1.1406 B(  0-C ,  2-C ) :   0.1177 B(  0-C ,  4-C ) :   1.4846
B(  0-C , 74-H ) :   1.0079 B(  1-O ,  2-C ) :   1.1315 B(  2-C ,  3-C ) :   1.4076
B(  2-C ,  7-C ) :   1.1411 B(  3-C ,  4-C ) :   1.2065 B(  3-C ,  6-F ) :   1.1463
B(  4-C ,  5-F ) :   1.1446 B(  7-C ,  8-C ) :   1.7337 B(  7-C , 75-H ) :   0.9524
B(  8-C ,  9-C ) :   1.0885 B(  8-C , 76-H ) :   0.9363 B(  9-C , 10-C ) :   1.3646
B(  9-C , 19-C ) :   1.3536 B( 10-C , 11-C ) :   0.8933 B( 10-C , 16-C ) :   1.3793
B( 11-C , 12-O ) :   2.1700 B( 11-C , 13-N ) :   1.0471 B( 13-N , 14-C ) :   1.0384
B( 13-N , 25-C ) :   0.9946 B( 14-C , 15-O ) :   2.2059 B( 14-C , 16-C ) :   0.8762
B( 16-C , 17-C ) :   1.3423 B( 17-C , 18-C ) :   1.3252 B( 17-C , 77-H ) :   1.0304
B( 18-C , 19-C ) :   1.3442 B( 18-C , 23-C ) :   0.8399 B( 19-C , 20-C ) :   0.8601
B( 20-C , 21-O ) :   2.1680 B( 20-C , 22-S ) :   1.0251 B( 21-O , 22-S ) :   0.1050
B( 22-S , 23-C ) :   1.0261 B( 22-S , 24-O ) :   0.1088 B( 23-C , 24-O ) :   2.2229
B( 25-C , 26-C ) :   1.7554 B( 25-C , 78-H ) :   0.9593 B( 26-C , 27-C ) :   1.0304
B( 26-C , 79-H ) :   0.9709 B( 27-C , 28-C ) :   1.5224 B( 27-C , 44-C ) :   1.1245
B( 28-C , 29-C ) :   1.1652 B( 28-C , 80-H ) :   0.9593 B( 29-C , 30-C ) :   1.4561
B( 29-C , 42-C ) :   1.1175 B( 30-C , 31-C ) :   1.0386 B( 30-C , 36-C ) :   1.1221
B( 31-C , 32-C ) :   1.0189 B( 31-C , 34-C ) :   1.0510 B( 31-C , 81-H ) :   0.8728
B( 32-C , 33-N ) :   1.0754 B( 32-C , 82-H ) :   0.9498 B( 32-C , 83-H ) :   0.9459
B( 33-N , 80-H ) :   0.1181 B( 33-N , 84-H ) :   0.9650 B( 33-N , 85-H ) :   0.9548
B( 34-C , 35-N ) :   1.0956 B( 34-C , 86-H ) :   0.9386 B( 34-C , 87-H ) :   0.9376
B( 35-N , 88-H ) :   0.9681 B( 35-N , 89-H ) :   0.9755 B( 36-C , 37-C ) :   1.6374
B( 36-C , 41-C ) :   1.0535 B( 37-C , 38-C ) :   0.9767 B( 37-C , 90-H ) :   0.9744
B( 38-C , 39-C ) :   0.9812 B( 38-C , 45-C ) :   0.9754 B( 38-C , 91-H ) :   0.8429
B( 39-C , 40-C ) :   1.7246 B( 39-C , 92-H ) :   0.9677 B( 40-C , 41-C ) :   1.1370
B( 40-C , 93-H ) :   0.9868 B( 41-C , 42-C ) :   1.4237 B( 42-C , 43-C ) :   1.1479
B( 43-C , 44-C ) :   1.5951 B( 43-C , 94-H ) :   0.9921 B( 44-C , 95-H ) :   0.9900
B( 45-C , 46-C ) :   1.8812 B( 45-C , 96-H ) :   0.9712 B( 46-C , 47-C ) :   1.0498
B( 46-C , 97-H ) :   0.9220 B( 47-C , 48-C ) :   1.3918 B( 47-C , 57-C ) :   1.3620
B( 48-C , 49-C ) :   0.8966 B( 48-C , 54-C ) :   1.3755 B( 49-C , 50-O ) :   2.1809
B( 49-C , 51-N ) :   1.0364 B( 51-N , 52-C ) :   1.0286 B( 51-N , 63-C ) :   1.0087
B( 52-C , 53-O ) :   2.2064 B( 52-C , 54-C ) :   0.8784 B( 54-C , 55-C ) :   1.3382
B( 55-C , 56-C ) :   1.3372 B( 55-C , 98-H ) :   1.0279 B( 56-C , 57-C ) :   1.3364
B( 56-C , 61-C ) :   0.8421 B( 57-C , 58-C ) :   0.8506 B( 58-C , 59-O ) :   2.1908
B( 58-C , 60-S ) :   1.0242 B( 59-O , 60-S ) :   0.1059 B( 60-S , 61-C ) :   1.0245
B( 60-S , 62-O ) :   0.1082 B( 61-C , 62-O ) :   2.2220 B( 63-C , 64-C ) :   1.7072
B( 63-C , 99-H ) :   0.9749 B( 64-C , 65-C ) :   1.1118 B( 64-C ,100-H ) :   0.9518
B( 65-C , 66-O ) :   1.1329 B( 65-C , 67-C ) :   0.1252 B( 65-C , 69-C ) :   1.3967
B( 66-O , 67-C ) :   1.1246 B( 67-C , 68-C ) :   1.4036 B( 67-C , 72-C ) :   1.1192
B( 68-C , 69-C ) :   1.1862 B( 68-C , 71-F ) :   1.1710 B( 69-C , 70-F ) :   1.1752
B( 72-C , 73-C ) :   1.9158 B( 72-C ,101-H ) :   0.9581 B( 73-C ,102-H ) :   0.9602
B( 73-C ,103-H ) :   0.9466

-----------------------------------------------------------------------------
         ABSORPTION SPECTRUM VIA TRANSITION ELECTRIC DIPOLE MOMENTS
-----------------------------------------------------------------------------
State   Energy  Wavelength   fosc         T2         TX        TY        TZ
        (cm-1)    (nm)                  (au**2)     (au)      (au)      (au)
-----------------------------------------------------------------------------
   0   10630.1    940.7   0.000504134   0.01561  -0.01346  -0.07738   0.09718
   1   12538.7    797.5   0.000662986   0.01741   0.00343  -0.11264  -0.06861
   2   13560.9    737.4   0.035481569   0.86137  -0.59866   0.68493   0.18401
   3   17973.3    556.4   0.037624518   0.68916  -0.04890  -0.11411  -0.82082
   4   18571.5    538.5   0.003329937   0.05903   0.08184  -0.02635   0.22724
   5   19833.5    504.2   0.137661793   2.28502  -0.28970   0.13861   1.47712
   6   21597.4    463.0   0.034072419   0.51937  -0.16614  -0.01618   0.70107
   7   22871.5    437.2   0.013464112   0.19380   0.04645   0.27792  -0.33823
   8   24884.0    401.9   0.020431496   0.27031  -0.09911  -0.35380   0.36784
   9   25807.3    387.5   0.000089168   0.00114  -0.02705  -0.01570  -0.01262
  10   26439.5    378.2   0.023159909   0.28838  -0.08796   0.01958  -0.52939
  11   26772.0    373.5   0.176094104   2.16541   0.19198   0.04534   1.45825
  12   27675.8    361.3   0.132064570   1.57095   0.51004   0.78292   0.83537
  13   27896.8    358.5   0.464348297   5.47979   1.11135   1.57715  -1.32563
  14   27922.2    358.1   0.006143228   0.07243   0.11200   0.14956  -0.19370
  15   28749.4    347.8   0.099391913   1.13815  -0.07645  -1.02323  -0.29206
  16   29255.0    341.8   0.494706537   5.56702   0.20984   2.34834   0.09105
  17   29962.8    333.7   0.065175941   0.71611  -0.14026  -0.53203   0.64295
  18   30154.0    331.6   0.052737965   0.57578  -0.32996  -0.62789   0.26956
  19   30887.0    323.8   0.017958227   0.19141   0.18116   0.35062  -0.18883
  20   31193.9    320.6   0.309866593   3.27024   0.37776   0.59880  -1.66402
  21   31385.1    318.6   0.051067841   0.53567   0.32069   0.57103  -0.32674
  22   32206.1    310.5   0.020196476   0.20645  -0.10396   0.18534  -0.40161
  23   32444.5    308.2   0.102548789   1.04055  -0.01657  -0.69793   0.74376
  24   32544.9    307.3   0.093274559   0.94353  -0.09787   0.42280  -0.86902
  25   32573.1    307.0   0.060092439   0.60735   0.06890  -0.21224   0.74670
  26   32726.7    305.6   0.019307871   0.19423   0.16531  -0.11587   0.39176
  27   32924.4    303.7   0.158209512   1.58194   0.01851   0.24329  -1.23386
  28   33042.1    302.6   0.010288036   0.10250   0.04502   0.27857   0.15125
  29   33224.5    301.0   0.030484530   0.30206   0.36354   0.37511  -0.17086
  30   33373.5    299.6   0.015568723   0.15358  -0.11699  -0.11591   0.35561
  31   33494.1    298.6   0.115456421   1.13481  -0.31551  -0.53266   0.86691
  32   33769.7    296.1   0.008106763   0.07903  -0.16771  -0.19870   0.10687
  33   34044.2    293.7   0.044959962   0.43477   0.10235   0.40096  -0.51335
  34   34461.5    290.2   0.032744990   0.31281  -0.40607  -0.28264   0.26084
  35   34551.4    289.4   0.027402414   0.26110  -0.23494  -0.45372   0.00585
  36   34901.5    286.5   0.052641891   0.49655  -0.38371   0.47771  -0.34801
  37   35060.1    285.2   0.007361018   0.06912   0.07736  -0.10701   0.22734
  38   35185.2    284.2   0.001648436   0.01542  -0.05089  -0.10781   0.03481
  39   35346.7    282.9   0.001347691   0.01255  -0.10108  -0.03687   0.03123
  40   35467.2    282.0   0.006117687   0.05679  -0.07457  -0.04696   0.22140
  41   35718.9    280.0   0.119533077   1.10171   0.11040  -0.27087   1.00804
  42   35839.9    279.0   0.143871502   1.32155  -0.28577   0.07227  -1.11115
  43   36228.3    276.0   0.036050159   0.32759  -0.26888  -0.11111   0.49290
  44   36385.9    274.8   0.018935317   0.17132  -0.12014  -0.12898   0.37450
  45   36693.5    272.5   0.378097150   3.39226   0.37903   1.30608  -1.24208
  46   37100.4    269.5   0.255501241   2.26720  -0.29882  -0.49150   1.39152
  47   37215.0    268.7   0.021104929   0.18670  -0.14161   0.34299   0.22136
  48   37346.8    267.8   0.018551595   0.16353   0.31219   0.25066  -0.05694
  49   37585.9    266.1   0.035145027   0.30783   0.35274   0.07441  -0.42174
  50   37943.0    263.6   0.013276917   0.11520  -0.06576  -0.29477  -0.15486
  51   38450.1    260.1   0.007929988   0.06790  -0.01095  -0.00227   0.26033
  52   38512.3    259.7   0.017326933   0.14811   0.28425   0.05730  -0.25305
  53   38996.1    256.4   0.018637557   0.15734  -0.26831  -0.13078   0.26124
  54   39111.1    255.7   0.016216435   0.13650   0.04019   0.06306  -0.36181
  55   39490.3    253.2   0.002699309   0.02250   0.03966   0.05467  -0.13395
  56   40135.1    249.2   0.032684757   0.26810   0.02023   0.16293  -0.49107
  57   40160.1    249.0   0.069986034   0.57371  -0.28898  -0.36877   0.59515

FINAL SINGLE POINT ENERGY     -4238.340569965527

DIPOLE MOMENT
-------------
                                X             Y             Z
Electronic contribution:     26.58179       6.20410     -21.19603
Nuclear contribution   :    -27.48115      -7.40641      21.10316
                        -----------------------------------------
Total Dipole Moment    :     -0.89936      -1.20231      -0.09287
                        -----------------------------------------
Magnitude (a.u.)       :      1.50434
Magnitude (Debye)      :      3.82372

Rotational constants in cm-1:     0.001045     0.000286     0.000244
Rotational constants in MHz :    31.334987     8.578877     7.322187

                             ****ORCA TERMINATED NORMALLY****
TOTAL RUN TIME: 0 days 0 hours 10 minutes 14 seconds 185 msec
