                         Program Version 4.2.0 -  RELEASE  -
|  1> # ORCA input file
|  2> # SCF done       -194.532768676773          0.000892789555
|  3> ! CAM-B3LYP def2-SVP def2/J RIJCOSX Grid4 TightSCF
|  4> %maxcore 5000
|  5> %tddft
|  6>     Mode sTDDFT
|  7>     Ethresh 5.0
|  8>     maxcore 5000
|  9> end
| 10>
| 11> %pal
| 12>   nprocs 6
| 13>   end
| 14> * xyz 0 1
| 15>    C       14.07059        -4.11074       -12.69845
| 16>    C       12.76815        -4.33545       -12.74741
| 17>    C       12.15558        -5.47086       -13.50661
| 18>    C       11.78103        -3.44118       -12.04250
| 19>    N       11.04779        -2.66572       -13.02235
| 20>    C        9.86617        -2.07010       -12.82434
| 21>    C        9.11523        -2.18477       -11.69530
| 22>    C        7.82088        -1.65380       -11.46357
| 23>    C        7.00698        -2.28103       -10.48750
| 24>    C        7.32671        -3.40855        -9.59517
| 25>    O        8.34871        -4.04064        -9.46718
| 26>    N        6.16375        -3.66293        -8.84719
| 27>    C        5.12735        -2.79843        -9.18888
| 28>    O        4.01813        -2.78520        -8.72018
| 29>    C        5.68714        -1.91463       -10.24141
| 30>    C        5.06957        -0.88317       -10.92275
| 31>    C        5.87044        -0.19422       -11.82430
| 32>    C        7.20349        -0.52672       -12.08640
| 33>    C        7.87929         0.46477       -12.92724
| 34>    O        9.03547         0.56073       -13.22804
| 35>    S        6.69137         1.71887       -13.46903
| 36>    C        5.35363         0.98549       -12.54384
| 37>    O        4.23927         1.41659       -12.52562
| 38>    C        6.15469        -4.66500        -7.87859
| 39>    C        5.08763        -5.02702        -7.15905
| 40>    C        5.05958        -6.04585        -6.13194
| 41>    C        3.84181        -6.37475        -5.57741
| 42>    C        3.75097        -7.33837        -4.55360
| 43>    C        2.67004        -7.83019        -3.82943
| 44>    C        1.22197        -7.49143        -3.95360
| 45>    C        0.95721        -6.02419        -3.57268
| 46>    N        1.25674        -5.84284        -2.16173
| 47>    C        0.69067        -7.81557        -5.35922
| 48>    N        0.93908        -9.21456        -5.65752
| 49>    C        3.20506        -8.75916        -2.86286
| 50>    C        2.60410        -9.46866        -1.88957
| 51>    C        3.38574       -10.32089        -0.95245
| 52>    C        4.84821       -10.38242        -1.23379
| 53>    C        5.43374        -9.66828        -2.21578
| 54>    C        4.65785        -8.83109        -3.04844
| 55>    C        4.97726        -7.96615        -4.08217
| 56>    C        6.21082        -7.62309        -4.67541
| 57>    C        6.24660        -6.69551        -5.66858
| 58>    C        2.71062       -11.65778        -0.79086
| 59>    C        3.30098       -12.83746        -0.95176
| 60>    C        2.63688       -14.11135        -0.73264
| 61>    C        1.76536       -14.35602         0.33527
| 62>    C        1.37508       -13.49599         1.48048
| 63>    O        1.73245       -12.37252         1.74806
| 64>    N        0.50126       -14.26053         2.25241
| 65>    C        0.32307       -15.54953         1.73614
| 66>    O       -0.37565       -16.39840         2.22724
| 67>    C        1.15413       -15.60583         0.51769
| 68>    C        1.36887       -16.67218        -0.33281
| 69>    C        2.24853       -16.44937        -1.38514
| 70>    C        2.87127       -15.21123        -1.58285
| 71>    C        3.76217       -15.17238        -2.74827
| 72>    O        4.41271       -14.25835        -3.16815
| 73>    S        3.76744       -16.79387        -3.53802
| 74>    C        2.60029       -17.48844        -2.36355
| 75>    O        2.20688       -18.61667        -2.41003
| 76>    C       -0.16274       -13.86815         3.41533
| 77>    C       -0.15023       -12.64189         3.94868
| 78>    C       -0.89220       -12.32582         5.13834
| 79>    C       -1.00501       -11.11703         5.70852
| 80>    C       -0.35029        -9.86532         5.21937
| 81>    C       -1.81467       -10.95044         6.97415
| 82>    N       -0.97553       -10.72676         8.13298
| 83>    C       -0.54481        -9.46582         8.46452
| 84>    C        0.56811        -9.18713         9.13799
| 85>    H       14.77525        -4.74662       -13.20598
| 86>    H       14.48690        -3.29065       -12.13910
| 87>    H       12.90319        -6.00263       -14.08778
| 88>    H       11.37735        -5.10717       -14.17611
| 89>    H       11.69042        -6.17093       -12.81351
| 90>    H       12.29935        -2.77475       -11.34205
| 91>    H       11.07072        -4.05140       -11.47729
| 92>    H       11.55523        -2.44261       -13.86429
| 93>    H        9.50620        -1.51558       -13.67675
| 94>    H        9.47484        -2.82537       -10.90535
| 95>    H        4.04346        -0.60279       -10.75181
| 96>    H        7.12804        -5.12635        -7.78494
| 97>    H        4.14679        -4.52789        -7.33902
| 98>    H        2.95230        -5.87829        -5.93528
| 99>    H        0.66548        -8.10450        -3.23796
|100>    H       -0.10383        -5.80008        -3.71739
|101>    H        1.53916        -5.36171        -4.23091
|102>    H        1.05543        -4.89093        -1.87636
|103>    H        2.24346        -6.01664        -1.99606
|104>    H        1.22001        -7.22410        -6.10794
|105>    H       -0.37785        -7.53829        -5.40111
|106>    H        0.42435        -9.81202        -5.01928
|107>    H        0.64355        -9.43682        -6.60096
|108>    H        1.53528        -9.43244        -1.73123
|109>    H        3.27064        -9.85058         0.04328
|110>    H        5.43352       -11.00366        -0.57399
|111>    H        6.50078        -9.72356        -2.37416
|112>    H        7.11726        -8.09810        -4.32978
|113>    H        7.19163        -6.42782        -6.11358
|114>    H        1.66522       -11.59758        -0.52503
|115>    H        4.31882       -12.89660        -1.30869
|116>    H        0.89543       -17.62974        -0.18750
|117>    H       -0.72876       -14.68351         3.84699
|118>    H        0.42286       -11.86185         3.47632
|119>    H       -1.42176       -13.15834         5.58640
|120>    H       -1.10392        -9.19290         4.80727
|121>    H        0.39333       -10.05876         4.45416
|122>    H        0.13130        -9.34906         6.05004
|123>    H       -2.41635       -11.84644         7.15695
|124>    H       -2.48796       -10.09328         6.88000
|125>    H       -0.29228       -11.45603         8.28998
|126>    H       -1.23875        -8.68077         8.19109
|127>    H        1.26530        -9.95653         9.42238
|128>    H        0.79759        -8.18455         9.44449
|129> *
|130>
|131>                          ****END OF INPUT****

CARTESIAN COORDINATES (ANGSTROEM)
---------------------------------
  C     14.070590   -4.110740  -12.698450
  C     12.768150   -4.335450  -12.747410
  C     12.155580   -5.470860  -13.506610
  C     11.781030   -3.441180  -12.042500
  N     11.047790   -2.665720  -13.022350
  C      9.866170   -2.070100  -12.824340
  C      9.115230   -2.184770  -11.695300
  C      7.820880   -1.653800  -11.463570
  C      7.006980   -2.281030  -10.487500
  C      7.326710   -3.408550   -9.595170
  O      8.348710   -4.040640   -9.467180
  N      6.163750   -3.662930   -8.847190
  C      5.127350   -2.798430   -9.188880
  O      4.018130   -2.785200   -8.720180
  C      5.687140   -1.914630  -10.241410
  C      5.069570   -0.883170  -10.922750
  C      5.870440   -0.194220  -11.824300
  C      7.203490   -0.526720  -12.086400
  C      7.879290    0.464770  -12.927240
  O      9.035470    0.560730  -13.228040
  S      6.691370    1.718870  -13.469030
  C      5.353630    0.985490  -12.543840
  O      4.239270    1.416590  -12.525620
  C      6.154690   -4.665000   -7.878590
  C      5.087630   -5.027020   -7.159050
  C      5.059580   -6.045850   -6.131940
  C      3.841810   -6.374750   -5.577410
  C      3.750970   -7.338370   -4.553600
  C      2.670040   -7.830190   -3.829430
  C      1.221970   -7.491430   -3.953600
  C      0.957210   -6.024190   -3.572680
  N      1.256740   -5.842840   -2.161730
  C      0.690670   -7.815570   -5.359220
  N      0.939080   -9.214560   -5.657520
  C      3.205060   -8.759160   -2.862860
  C      2.604100   -9.468660   -1.889570
  C      3.385740  -10.320890   -0.952450
  C      4.848210  -10.382420   -1.233790
  C      5.433740   -9.668280   -2.215780
  C      4.657850   -8.831090   -3.048440
  C      4.977260   -7.966150   -4.082170
  C      6.210820   -7.623090   -4.675410
  C      6.246600   -6.695510   -5.668580
  C      2.710620  -11.657780   -0.790860
  C      3.300980  -12.837460   -0.951760
  C      2.636880  -14.111350   -0.732640
  C      1.765360  -14.356020    0.335270
  C      1.375080  -13.495990    1.480480
  O      1.732450  -12.372520    1.748060
  N      0.501260  -14.260530    2.252410
  C      0.323070  -15.549530    1.736140
  O     -0.375650  -16.398400    2.227240
  C      1.154130  -15.605830    0.517690
  C      1.368870  -16.672180   -0.332810
  C      2.248530  -16.449370   -1.385140
  C      2.871270  -15.211230   -1.582850
  C      3.762170  -15.172380   -2.748270
  O      4.412710  -14.258350   -3.168150
  S      3.767440  -16.793870   -3.538020
  C      2.600290  -17.488440   -2.363550
  O      2.206880  -18.616670   -2.410030
  C     -0.162740  -13.868150    3.415330
  C     -0.150230  -12.641890    3.948680
  C     -0.892200  -12.325820    5.138340
  C     -1.005010  -11.117030    5.708520
  C     -0.350290   -9.865320    5.219370
  C     -1.814670  -10.950440    6.974150
  N     -0.975530  -10.726760    8.132980
  C     -0.544810   -9.465820    8.464520
  C      0.568110   -9.187130    9.137990
  H     14.775250   -4.746620  -13.205980
  H     14.486900   -3.290650  -12.139100
  H     12.903190   -6.002630  -14.087780
  H     11.377350   -5.107170  -14.176110
  H     11.690420   -6.170930  -12.813510
  H     12.299350   -2.774750  -11.342050
  H     11.070720   -4.051400  -11.477290
  H     11.555230   -2.442610  -13.864290
  H      9.506200   -1.515580  -13.676750
  H      9.474840   -2.825370  -10.905350
  H      4.043460   -0.602790  -10.751810
  H      7.128040   -5.126350   -7.784940
  H      4.146790   -4.527890   -7.339020
  H      2.952300   -5.878290   -5.935280
  H      0.665480   -8.104500   -3.237960
  H     -0.103830   -5.800080   -3.717390
  H      1.539160   -5.361710   -4.230910
  H      1.055430   -4.890930   -1.876360
  H      2.243460   -6.016640   -1.996060
  H      1.220010   -7.224100   -6.107940
  H     -0.377850   -7.538290   -5.401110
  H      0.424350   -9.812020   -5.019280
  H      0.643550   -9.436820   -6.600960
  H      1.535280   -9.432440   -1.731230
  H      3.270640   -9.850580    0.043280
  H      5.433520  -11.003660   -0.573990
  H      6.500780   -9.723560   -2.374160
  H      7.117260   -8.098100   -4.329780
  H      7.191630   -6.427820   -6.113580
  H      1.665220  -11.597580   -0.525030
  H      4.318820  -12.896600   -1.308690
  H      0.895430  -17.629740   -0.187500
  H     -0.728760  -14.683510    3.846990
  H      0.422860  -11.861850    3.476320
  H     -1.421760  -13.158340    5.586400
  H     -1.103920   -9.192900    4.807270
  H      0.393330  -10.058760    4.454160
  H      0.131300   -9.349060    6.050040
  H     -2.416350  -11.846440    7.156950
  H     -2.487960  -10.093280    6.880000
  H     -0.292280  -11.456030    8.289980
  H     -1.238750   -8.680770    8.191090
  H      1.265300   -9.956530    9.422380
  H      0.797590   -8.184550    9.444490

 Total Charge           Charge          ....    0
 Multiplicity           Mult            ....    1
 Number of Electrons    NEL             ....  506
 Basis Dimension        Dim             .... 1208

ORBITAL ENERGIES
----------------

  NO   OCC          E(Eh)            E(eV)
   0   2.0000     -88.950839     -2420.4754
   1   2.0000     -88.939120     -2420.1565
   2   2.0000     -19.244481      -523.6689
   3   2.0000     -19.244007      -523.6560
   4   2.0000     -19.235606      -523.4275
   5   2.0000     -19.233663      -523.3746
   6   2.0000     -19.231702      -523.3212
   7   2.0000     -19.231039      -523.3032
   8   2.0000     -19.223568      -523.0999
   9   2.0000     -19.220873      -523.0265
  10   2.0000     -14.484317      -394.1383
  11   2.0000     -14.469746      -393.7418
  12   2.0000     -14.450467      -393.2172
  13   2.0000     -14.406737      -392.0272
  14   2.0000     -14.368816      -390.9954
  15   2.0000     -14.367094      -390.9485
  16   2.0000     -10.416448      -283.4460
  17   2.0000     -10.413388      -283.3627
  18   2.0000     -10.406400      -283.1725
  19   2.0000     -10.405727      -283.1542
  20   2.0000     -10.401290      -283.0335
  21   2.0000     -10.399663      -282.9892
  22   2.0000     -10.395958      -282.8884
  23   2.0000     -10.392046      -282.7820
  24   2.0000     -10.335805      -281.2516
  25   2.0000     -10.328182      -281.0441
  26   2.0000     -10.326309      -280.9932
  27   2.0000     -10.326083      -280.9870
  28   2.0000     -10.325769      -280.9785
  29   2.0000     -10.324741      -280.9505
  30   2.0000     -10.323360      -280.9129
  31   2.0000     -10.322413      -280.8871
  32   2.0000     -10.313479      -280.6440
  33   2.0000     -10.313364      -280.6409
  34   2.0000     -10.311937      -280.6021
  35   2.0000     -10.308157      -280.4992
  36   2.0000     -10.307355      -280.4774
  37   2.0000     -10.302442      -280.3437
  38   2.0000     -10.300905      -280.3019
  39   2.0000     -10.299017      -280.2505
  40   2.0000     -10.297569      -280.2111
  41   2.0000     -10.293411      -280.0979
  42   2.0000     -10.292897      -280.0840
  43   2.0000     -10.291522      -280.0466
  44   2.0000     -10.288332      -279.9598
  45   2.0000     -10.286739      -279.9164
  46   2.0000     -10.278382      -279.6890
  47   2.0000     -10.274234      -279.5761
  48   2.0000     -10.273259      -279.5496
  49   2.0000     -10.272891      -279.5396
  50   2.0000     -10.271230      -279.4944
  51   2.0000     -10.269295      -279.4417
  52   2.0000     -10.267647      -279.3969
  53   2.0000     -10.266146      -279.3560
  54   2.0000     -10.264584      -279.3135
  55   2.0000     -10.264441      -279.3096
  56   2.0000     -10.262247      -279.2499
  57   2.0000     -10.260984      -279.2156
  58   2.0000     -10.259866      -279.1851
  59   2.0000     -10.259233      -279.1679
  60   2.0000     -10.258680      -279.1529
  61   2.0000     -10.256203      -279.0855
  62   2.0000     -10.255494      -279.0662
  63   2.0000     -10.254740      -279.0457
  64   2.0000     -10.253574      -279.0139
  65   2.0000     -10.251639      -278.9613
  66   2.0000     -10.251324      -278.9527
  67   2.0000     -10.250904      -278.9413
  68   2.0000     -10.247558      -278.8502
  69   2.0000     -10.227297      -278.2989
  70   2.0000      -8.049999      -219.0516
  71   2.0000      -8.038491      -218.7385
  72   2.0000      -6.018880      -163.7821
  73   2.0000      -6.015609      -163.6930
  74   2.0000      -6.011042      -163.5688
  75   2.0000      -6.007314      -163.4673
  76   2.0000      -6.004144      -163.3811
  77   2.0000      -5.999535      -163.2556
  78   2.0000      -1.180721       -32.1290
  79   2.0000      -1.167507       -31.7695
  80   2.0000      -1.167428       -31.7673
  81   2.0000      -1.163389       -31.6574
  82   2.0000      -1.156329       -31.4653
  83   2.0000      -1.156279       -31.4639
  84   2.0000      -1.151945       -31.3460
  85   2.0000      -1.143779       -31.1238
  86   2.0000      -1.073277       -29.2053
  87   2.0000      -1.059462       -28.8294
  88   2.0000      -1.047821       -28.5127
  89   2.0000      -1.013218       -27.5711
  90   2.0000      -1.010934       -27.5089
  91   2.0000      -0.994620       -27.0650
  92   2.0000      -0.973836       -26.4994
  93   2.0000      -0.955824       -26.0093
  94   2.0000      -0.954515       -25.9737
  95   2.0000      -0.942908       -25.6578
  96   2.0000      -0.942091       -25.6356
  97   2.0000      -0.937655       -25.5149
  98   2.0000      -0.920515       -25.0485
  99   2.0000      -0.913215       -24.8499
 100   2.0000      -0.910392       -24.7730
 101   2.0000      -0.901537       -24.5321
 102   2.0000      -0.895212       -24.3599
 103   2.0000      -0.889719       -24.2105
 104   2.0000      -0.879445       -23.9309
 105   2.0000      -0.863122       -23.4868
 106   2.0000      -0.852189       -23.1892
 107   2.0000      -0.851733       -23.1768
 108   2.0000      -0.831132       -22.6163
 109   2.0000      -0.829214       -22.5641
 110   2.0000      -0.827398       -22.5146
 111   2.0000      -0.819096       -22.2887
 112   2.0000      -0.817479       -22.2447
 113   2.0000      -0.800112       -21.7721
 114   2.0000      -0.796829       -21.6828
 115   2.0000      -0.792069       -21.5533
 116   2.0000      -0.786646       -21.4057
 117   2.0000      -0.780341       -21.2342
 118   2.0000      -0.778582       -21.1863
 119   2.0000      -0.763727       -20.7821
 120   2.0000      -0.758386       -20.6367
 121   2.0000      -0.751085       -20.4381
 122   2.0000      -0.749474       -20.3942
 123   2.0000      -0.738887       -20.1061
 124   2.0000      -0.737661       -20.0728
 125   2.0000      -0.722502       -19.6603
 126   2.0000      -0.705923       -19.2091
 127   2.0000      -0.704858       -19.1801
 128   2.0000      -0.694857       -18.9080
 129   2.0000      -0.688868       -18.7450
 130   2.0000      -0.686662       -18.6850
 131   2.0000      -0.680730       -18.5236
 132   2.0000      -0.676327       -18.4038
 133   2.0000      -0.671189       -18.2640
 134   2.0000      -0.666216       -18.1287
 135   2.0000      -0.659545       -17.9471
 136   2.0000      -0.650618       -17.7042
 137   2.0000      -0.646952       -17.6044
 138   2.0000      -0.637698       -17.3526
 139   2.0000      -0.632219       -17.2035
 140   2.0000      -0.630608       -17.1597
 141   2.0000      -0.619451       -16.8561
 142   2.0000      -0.618027       -16.8174
 143   2.0000      -0.615213       -16.7408
 144   2.0000      -0.607374       -16.5275
 145   2.0000      -0.606267       -16.4974
 146   2.0000      -0.603423       -16.4200
 147   2.0000      -0.597533       -16.2597
 148   2.0000      -0.591363       -16.0918
 149   2.0000      -0.589212       -16.0333
 150   2.0000      -0.582610       -15.8536
 151   2.0000      -0.578065       -15.7300
 152   2.0000      -0.576519       -15.6879
 153   2.0000      -0.575718       -15.6661
 154   2.0000      -0.569784       -15.5046
 155   2.0000      -0.567744       -15.4491
 156   2.0000      -0.566696       -15.4206
 157   2.0000      -0.562594       -15.3090
 158   2.0000      -0.560385       -15.2489
 159   2.0000      -0.559624       -15.2281
 160   2.0000      -0.555906       -15.1270
 161   2.0000      -0.555428       -15.1140
 162   2.0000      -0.554733       -15.0951
 163   2.0000      -0.554065       -15.0769
 164   2.0000      -0.547944       -14.9103
 165   2.0000      -0.546609       -14.8740
 166   2.0000      -0.543821       -14.7981
 167   2.0000      -0.543614       -14.7925
 168   2.0000      -0.539956       -14.6930
 169   2.0000      -0.538089       -14.6421
 170   2.0000      -0.536832       -14.6079
 171   2.0000      -0.530220       -14.4280
 172   2.0000      -0.529434       -14.4066
 173   2.0000      -0.528150       -14.3717
 174   2.0000      -0.527596       -14.3566
 175   2.0000      -0.526233       -14.3195
 176   2.0000      -0.524747       -14.2791
 177   2.0000      -0.521243       -14.1837
 178   2.0000      -0.519528       -14.1371
 179   2.0000      -0.517200       -14.0737
 180   2.0000      -0.515901       -14.0384
 181   2.0000      -0.514600       -14.0030
 182   2.0000      -0.509730       -13.8705
 183   2.0000      -0.508093       -13.8259
 184   2.0000      -0.506237       -13.7754
 185   2.0000      -0.501071       -13.6348
 186   2.0000      -0.500192       -13.6109
 187   2.0000      -0.498977       -13.5778
 188   2.0000      -0.497913       -13.5489
 189   2.0000      -0.497421       -13.5355
 190   2.0000      -0.496395       -13.5076
 191   2.0000      -0.489534       -13.3209
 192   2.0000      -0.489107       -13.3093
 193   2.0000      -0.486985       -13.2515
 194   2.0000      -0.484980       -13.1970
 195   2.0000      -0.481516       -13.1027
 196   2.0000      -0.478084       -13.0093
 197   2.0000      -0.476179       -12.9575
 198   2.0000      -0.474124       -12.9016
 199   2.0000      -0.470913       -12.8142
 200   2.0000      -0.468320       -12.7436
 201   2.0000      -0.467323       -12.7165
 202   2.0000      -0.466192       -12.6857
 203   2.0000      -0.461229       -12.5507
 204   2.0000      -0.455778       -12.4023
 205   2.0000      -0.454606       -12.3705
 206   2.0000      -0.454042       -12.3551
 207   2.0000      -0.452974       -12.3260
 208   2.0000      -0.452180       -12.3045
 209   2.0000      -0.444786       -12.1032
 210   2.0000      -0.441896       -12.0246
 211   2.0000      -0.435619       -11.8538
 212   2.0000      -0.433732       -11.8025
 213   2.0000      -0.431324       -11.7369
 214   2.0000      -0.431067       -11.7299
 215   2.0000      -0.429995       -11.7008
 216   2.0000      -0.425481       -11.5779
 217   2.0000      -0.425049       -11.5662
 218   2.0000      -0.422154       -11.4874
 219   2.0000      -0.415196       -11.2981
 220   2.0000      -0.412891       -11.2353
 221   2.0000      -0.401767       -10.9326
 222   2.0000      -0.396189       -10.7808
 223   2.0000      -0.393584       -10.7100
 224   2.0000      -0.387131       -10.5344
 225   2.0000      -0.380800       -10.3621
 226   2.0000      -0.380341       -10.3496
 227   2.0000      -0.378189       -10.2910
 228   2.0000      -0.376862       -10.2549
 229   2.0000      -0.369296       -10.0491
 230   2.0000      -0.369091       -10.0435
 231   2.0000      -0.367813       -10.0087
 232   2.0000      -0.365176        -9.9369
 233   2.0000      -0.363168        -9.8823
 234   2.0000      -0.360387        -9.8066
 235   2.0000      -0.357292        -9.7224
 236   2.0000      -0.355799        -9.6818
 237   2.0000      -0.350303        -9.5322
 238   2.0000      -0.347986        -9.4692
 239   2.0000      -0.346039        -9.4162
 240   2.0000      -0.339187        -9.2298
 241   2.0000      -0.338392        -9.2081
 242   2.0000      -0.335009        -9.1161
 243   2.0000      -0.331936        -9.0324
 244   2.0000      -0.317604        -8.6425
 245   2.0000      -0.312382        -8.5003
 246   2.0000      -0.293155        -7.9772
 247   2.0000      -0.291221        -7.9245
 248   2.0000      -0.280252        -7.6260
 249   2.0000      -0.270048        -7.3484
 250   2.0000      -0.260511        -7.0889
 251   2.0000      -0.252365        -6.8672
 252   2.0000      -0.210129        -5.7179
 253   0.0000      -0.096941        -2.6379
 254   0.0000      -0.082053        -2.2328
 255   0.0000      -0.058364        -1.5882
 256   0.0000      -0.056502        -1.5375
 257   0.0000      -0.036704        -0.9988

MULLIKEN ATOMIC CHARGES
-----------------------
   0 C :   -0.010150
   1 C :   -0.249807
   2 C :    0.110626
   3 C :    0.220347
   4 N :   -0.159831
   5 C :    0.122573
   6 C :   -0.173086
   7 C :    0.124441
   8 C :   -0.054150
   9 C :    0.197040
  10 O :   -0.166688
  11 N :   -0.227164
  12 C :    0.214956
  13 O :   -0.144726
  14 C :    0.010721
  15 C :   -0.095240
  16 C :    0.050000
  17 C :    0.005698
  18 C :    0.020756
  19 O :   -0.150727
  20 S :   -0.002811
  21 C :    0.049444
  22 O :   -0.128231
  23 C :    0.074147
  24 C :   -0.022980
  25 C :    0.123907
  26 C :   -0.118458
  27 C :    0.059451
  28 C :   -0.014947
  29 C :   -0.067664
  30 C :    0.154531
  31 N :   -0.230364
  32 C :    0.159060
  33 N :   -0.210053
  34 C :    0.089653
  35 C :   -0.131750
  36 C :    0.170034
  37 C :   -0.066639
  38 C :    0.028476
  39 C :    0.012415
  40 C :    0.034766
  41 C :   -0.003002
  42 C :   -0.009823
  43 C :   -0.035267
  44 C :   -0.024691
  45 C :    0.052905
  46 C :   -0.042175
  47 C :    0.201547
  48 O :   -0.153504
  49 N :   -0.223411
  50 C :    0.194608
  51 O :   -0.137259
  52 C :    0.010937
  53 C :   -0.070417
  54 C :    0.051350
  55 C :    0.046084
  56 C :    0.032191
  57 O :   -0.121449
  58 S :    0.009205
  59 C :    0.046046
  60 O :   -0.120890
  61 C :    0.062222
  62 C :    0.006897
  63 C :   -0.004128
  64 C :   -0.182871
  65 C :    0.091394
  66 C :    0.195913
  67 N :   -0.175503
  68 C :    0.037420
  69 C :   -0.084619
  70 H :    0.013506
  71 H :    0.013557
  72 H :    0.013177
  73 H :    0.013695
  74 H :    0.028687
  75 H :    0.017671
  76 H :    0.042639
  77 H :    0.135103
  78 H :    0.015098
  79 H :    0.012394
  80 H :    0.009465
  81 H :    0.021622
  82 H :    0.007451
  83 H :   -0.035401
  84 H :   -0.031280
  85 H :   -0.013826
  86 H :   -0.018506
  87 H :    0.088893
  88 H :    0.098134
  89 H :   -0.012504
  90 H :   -0.019691
  91 H :    0.081624
  92 H :    0.089047
  93 H :   -0.008276
  94 H :    0.060773
  95 H :   -0.008371
  96 H :   -0.037883
  97 H :   -0.041507
  98 H :   -0.036416
  99 H :    0.001263
 100 H :    0.029516
 101 H :    0.017614
 102 H :    0.024030
 103 H :    0.019739
 104 H :   -0.032163
 105 H :    0.020830
 106 H :    0.013500
 107 H :    0.034122
 108 H :    0.001323
 109 H :    0.008070
 110 H :    0.104990
 111 H :   -0.000585
 112 H :   -0.006557
 113 H :    0.008147
Sum of atomic charges:   -0.0000000

LOEWDIN ATOMIC CHARGES
----------------------
   0 C :   -0.056117
   1 C :   -0.041083
   2 C :   -0.046859
   3 C :    0.050617
   4 N :    0.021289
   5 C :    0.086758
   6 C :   -0.155533
   7 C :    0.052783
   8 C :   -0.058410
   9 C :    0.106730
  10 O :   -0.150899
  11 N :   -0.013037
  12 C :    0.099218
  13 O :   -0.135370
  14 C :   -0.022539
  15 C :    0.009672
  16 C :   -0.045357
  17 C :   -0.089430
  18 C :   -0.039381
  19 O :   -0.132157
  20 S :    0.287408
  21 C :   -0.050324
  22 O :   -0.119302
  23 C :    0.013668
  24 C :   -0.035385
  25 C :   -0.023401
  26 C :   -0.020756
  27 C :   -0.017061
  28 C :   -0.030484
  29 C :   -0.040919
  30 C :    0.028728
  31 N :   -0.124075
  32 C :    0.026101
  33 N :   -0.114384
  34 C :   -0.013058
  35 C :    0.063343
  36 C :   -0.029872
  37 C :   -0.041512
  38 C :   -0.009342
  39 C :   -0.037850
  40 C :   -0.026344
  41 C :   -0.007035
  42 C :   -0.028079
  43 C :    0.043374
  44 C :   -0.052551
  45 C :    0.040261
  46 C :   -0.036991
  47 C :    0.102961
  48 O :   -0.136294
  49 N :   -0.010980
  50 C :    0.096881
  51 O :   -0.133282
  52 C :   -0.029369
  53 C :    0.035808
  54 C :   -0.051250
  55 C :   -0.059420
  56 C :   -0.040480
  57 O :   -0.105873
  58 S :    0.297203
  59 C :   -0.046410
  60 O :   -0.112960
  61 C :    0.013687
  62 C :   -0.037046
  63 C :   -0.055127
  64 C :   -0.034367
  65 C :   -0.052105
  66 C :    0.041740
  67 N :   -0.036534
  68 C :    0.018131
  69 C :   -0.159876
  70 H :    0.023074
  71 H :    0.022233
  72 H :    0.030686
  73 H :    0.028560
  74 H :    0.038600
  75 H :    0.026313
  76 H :    0.037825
  77 H :    0.085311
  78 H :    0.028343
  79 H :    0.027733
  80 H :    0.046791
  81 H :    0.027446
  82 H :    0.032179
  83 H :    0.019614
  84 H :    0.020278
  85 H :    0.012619
  86 H :    0.000410
  87 H :    0.053136
  88 H :    0.052293
  89 H :    0.015920
  90 H :   -0.003600
  91 H :    0.048430
  92 H :    0.053831
  93 H :    0.027930
  94 H :    0.076629
  95 H :    0.023622
  96 H :    0.029497
  97 H :    0.025790
  98 H :    0.023638
  99 H :    0.023120
 100 H :    0.036127
 101 H :    0.051489
 102 H :    0.032331
 103 H :    0.028334
 104 H :    0.022151
 105 H :    0.036494
 106 H :    0.029966
 107 H :    0.038916
 108 H :    0.022265
 109 H :    0.026991
 110 H :    0.070474
 111 H :    0.021988
 112 H :    0.013445
 113 H :    0.020691

  Mayer bond orders larger than 0.100000
B(  0-C ,  1-C ) :   2.0150 B(  0-C , 70-H ) :   0.9479 B(  0-C , 71-H ) :   0.9493
B(  1-C ,  2-C ) :   1.0534 B(  1-C ,  3-C ) :   1.0298 B(  2-C , 72-H ) :   0.9591
B(  2-C , 73-H ) :   0.9526 B(  2-C , 74-H ) :   0.9496 B(  3-C ,  4-N ) :   0.9687
B(  3-C , 75-H ) :   0.9371 B(  3-C , 76-H ) :   0.9286 B(  4-N ,  5-C ) :   1.3156
B(  4-N , 77-H ) :   0.9330 B(  5-C ,  6-C ) :   1.5316 B(  5-C , 78-H ) :   0.9558
B(  6-C ,  7-C ) :   1.2461 B(  6-C , 79-H ) :   0.9321 B(  7-C ,  8-C ) :   1.3079
B(  7-C , 17-C ) :   1.2458 B(  8-C ,  9-C ) :   0.9205 B(  8-C , 14-C ) :   1.3979
B(  9-C , 10-O ) :   2.1159 B(  9-C , 11-N ) :   1.0427 B( 11-N , 12-C ) :   1.0414
B( 11-N , 23-C ) :   1.0042 B( 12-C , 13-O ) :   2.1940 B( 12-C , 14-C ) :   0.8793
B( 14-C , 15-C ) :   1.3192 B( 15-C , 16-C ) :   1.3467 B( 15-C , 80-H ) :   1.0287
B( 16-C , 17-C ) :   1.3402 B( 16-C , 21-C ) :   0.8449 B( 17-C , 18-C ) :   0.8806
B( 18-C , 19-O ) :   2.1501 B( 18-C , 20-S ) :   1.0144 B( 20-S , 21-C ) :   1.0293
B( 20-S , 22-O ) :   0.1084 B( 21-C , 22-O ) :   2.2106 B( 23-C , 24-C ) :   1.7041
B( 23-C , 81-H ) :   0.9656 B( 24-C , 25-C ) :   1.0608 B( 24-C , 82-H ) :   0.9754
B( 25-C , 26-C ) :   1.5287 B( 25-C , 42-C ) :   1.1282 B( 26-C , 27-C ) :   1.1024
B( 26-C , 83-H ) :   0.9972 B( 27-C , 28-C ) :   1.4732 B( 27-C , 40-C ) :   1.1338
B( 28-C , 29-C ) :   1.0162 B( 28-C , 34-C ) :   1.1163 B( 29-C , 30-C ) :   1.0409
B( 29-C , 32-C ) :   1.0474 B( 29-C , 84-H ) :   0.8851 B( 30-C , 31-N ) :   1.0922
B( 30-C , 85-H ) :   0.9337 B( 30-C , 86-H ) :   0.9374 B( 31-N , 87-H ) :   0.9671
B( 31-N , 88-H ) :   0.9701 B( 32-C , 33-N ) :   1.0879 B( 32-C , 89-H ) :   0.9321
B( 32-C , 90-H ) :   0.9371 B( 33-N , 91-H ) :   0.9721 B( 33-N , 92-H ) :   0.9689
B( 34-C , 35-C ) :   1.6855 B( 34-C , 39-C ) :   1.0493 B( 35-C , 36-C ) :   0.9533
B( 35-C , 93-H ) :   0.9663 B( 36-C , 37-C ) :   1.0210 B( 36-C , 43-C ) :   0.9621
B( 36-C , 94-H ) :   0.8236 B( 37-C , 38-C ) :   1.7099 B( 37-C , 95-H ) :   0.9592
B( 38-C , 39-C ) :   1.1362 B( 38-C , 96-H ) :   0.9876 B( 39-C , 40-C ) :   1.4305
B( 40-C , 41-C ) :   1.1434 B( 41-C , 42-C ) :   1.6128 B( 41-C , 97-H ) :   0.9893
B( 42-C , 98-H ) :   0.9811 B( 43-C , 44-C ) :   1.8750 B( 43-C , 99-H ) :   0.9668
B( 44-C , 45-C ) :   1.0601 B( 44-C ,100-H ) :   0.9173 B( 45-C , 46-C ) :   1.3697
B( 45-C , 55-C ) :   1.3592 B( 46-C , 47-C ) :   0.8985 B( 46-C , 52-C ) :   1.3756
B( 47-C , 48-O ) :   2.1302 B( 47-C , 49-N ) :   1.0576 B( 49-N , 50-C ) :   1.0292
B( 49-N , 61-C ) :   0.9896 B( 50-C , 51-O ) :   2.2334 B( 50-C , 52-C ) :   0.8742
B( 52-C , 53-C ) :   1.3455 B( 53-C , 54-C ) :   1.3290 B( 53-C ,101-H ) :   1.0288
B( 54-C , 55-C ) :   1.3389 B( 54-C , 59-C ) :   0.8410 B( 55-C , 56-C ) :   0.8602
B( 56-C , 57-O ) :   2.1699 B( 56-C , 58-S ) :   1.0247 B( 57-O , 58-S ) :   0.1050
B( 58-S , 59-C ) :   1.0272 B( 58-S , 60-O ) :   0.1091 B( 59-C , 60-O ) :   2.2215
B( 61-C , 62-C ) :   1.7521 B( 61-C ,102-H ) :   0.9742 B( 62-C , 63-C ) :   1.0759
B( 62-C ,103-H ) :   0.9559 B( 63-C , 64-C ) :   1.7898 B( 63-C ,104-H ) :   0.9732
B( 64-C , 65-C ) :   1.0726 B( 64-C , 66-C ) :   1.0340 B( 65-C ,105-H ) :   0.9436
B( 65-C ,106-H ) :   0.9509 B( 65-C ,107-H ) :   0.9391 B( 66-C , 67-N ) :   1.0355
B( 66-C ,108-H ) :   0.9429 B( 66-C ,109-H ) :   0.9317 B( 67-N , 68-C ) :   1.1660
B( 67-N ,110-H ) :   0.9426 B( 68-C , 69-C ) :   1.8802 B( 68-C ,111-H ) :   0.9576
B( 69-C ,112-H ) :   0.9572 B( 69-C ,113-H ) :   0.9539

-----------------------------------------------------------------------------
         ABSORPTION SPECTRUM VIA TRANSITION ELECTRIC DIPOLE MOMENTS
-----------------------------------------------------------------------------
State   Energy  Wavelength   fosc         T2         TX        TY        TZ
        (cm-1)    (nm)                  (au**2)     (au)      (au)      (au)
-----------------------------------------------------------------------------
   0   12028.6    831.3   0.000388600   0.01064  -0.02406   0.08941   0.04541
   1   14570.9    686.3   0.052341385   1.18259  -1.01755   0.31087  -0.22484
   2   15861.7    630.4   0.001407373   0.02921  -0.11037  -0.09227   0.09228
   3   19098.5    523.6   0.088076276   1.51822  -0.12873   0.99722  -0.71218
   4   19437.9    514.5   0.042361734   0.71746   0.07301   0.72509  -0.43172
   5   20031.4    499.2   0.005906934   0.09708  -0.21697  -0.11663   0.19079
   6   24737.5    404.2   0.013801166   0.18367  -0.24780   0.32306  -0.13377
   7   25436.4    393.1   0.017169999   0.22222   0.25456  -0.13175  -0.37425
   8   25618.1    390.3   0.126126548   1.62082   0.30792   0.77258  -0.96391
   9   25844.8    386.9   0.007227777   0.09207   0.00034   0.28981   0.08987
  10   25949.7    385.4   0.002937029   0.03726   0.08910  -0.07281  -0.15498
  11   27279.8    366.6   0.777166700   9.37883  -1.61619  -1.47798   2.14064
  12   28173.0    354.9   0.010258256   0.11987   0.14458   0.20875  -0.23535
  13   28661.6    348.9   0.002148316   0.02468  -0.11749   0.02097   0.10214
  14   28905.2    346.0   0.012177465   0.13869  -0.25718  -0.09866   0.25063
  15   29495.4    339.0   0.319626676   3.56750   0.56510  -0.80526  -1.61237
  16   29889.0    334.6   0.000585059   0.00644  -0.02524   0.02939   0.07031
  17   30213.2    331.0   0.346120954   3.77144  -1.69531   0.53757   0.77999
  18   30346.7    329.5   0.017270436   0.18736  -0.40678   0.12914   0.07217
  19   30648.2    326.3   0.035062710   0.37663  -0.44931   0.31603   0.27364
  20   30672.5    326.0   0.000299588   0.00322  -0.01521   0.03440   0.04244
  21   31200.3    320.5   0.071737085   0.75694   0.02625   0.70744  -0.50574
  22   31980.0    312.7   0.000024866   0.00026   0.00429   0.01511   0.00306
  23   32191.1    310.6   0.000003675   0.00004   0.00157  -0.00481  -0.00346
  24   32671.6    306.1   0.012440144   0.12535  -0.04952  -0.33470  -0.10430
  25   32761.5    305.2   0.013115487   0.13179  -0.28606  -0.14644   0.16887
  26   32806.6    304.8   0.008665897   0.08696  -0.10936  -0.26640   0.06350
  27   33113.8    302.0   0.000763288   0.00759   0.03080  -0.01262  -0.08050
  28   33205.4    301.2   0.020179178   0.20006   0.00359   0.28020   0.34863
  29   33625.0    297.4   0.003328620   0.03259  -0.15929  -0.05250  -0.06679
  30   33726.7    296.5   0.004720785   0.04608   0.19204  -0.09542   0.00974
  31   33922.2    294.8   0.007231204   0.07018  -0.19141   0.01584   0.18245
  32   34121.7    293.1   0.182832626   1.76400   0.71218   0.19905  -1.10326
  33   34634.2    288.7   0.713206331   6.77930  -0.12475  -2.08550   1.55384
  34   34958.4    286.1   0.023553310   0.22181   0.23974   0.07953  -0.39750
  35   35066.8    285.2   0.646718040   6.07147   0.59808   1.79252  -1.58135
  36   35347.0    282.9   0.007157801   0.06667   0.20905  -0.12752   0.08187
  37   35694.2    280.2   0.000663637   0.00612  -0.00121  -0.05912   0.05123
  38   35798.4    279.3   0.024260855   0.22311   0.45760  -0.07253   0.09194
  39   35889.0    278.6   0.014490850   0.13293  -0.01950   0.30102   0.20477
  40   36047.7    277.4   0.002470468   0.02256  -0.06309  -0.11709   0.06980
  41   36214.6    276.1   0.075358916   0.68506   0.06137  -0.70917  -0.42234
  42   36604.2    273.2   0.035446027   0.31880   0.47618  -0.19729  -0.23049
  43   36760.4    272.0   0.070528760   0.63163   0.51265   0.42359  -0.43518
  44   37203.3    268.8   0.003172407   0.02807   0.07261   0.04951  -0.14265
  45   37420.1    267.2   0.094579457   0.83208  -0.08401  -0.90779   0.03088
  46   37694.3    265.3   0.012329249   0.10768   0.06701   0.22251  -0.23169
  47   37852.0    264.2   0.007596508   0.06607  -0.01705  -0.25644  -0.00441
  48   37969.2    263.4   0.000629466   0.00546  -0.01698  -0.04976   0.05190
  49   38467.2    260.0   0.044126994   0.37765   0.06119   0.41762  -0.44666
  50   38746.5    258.1   0.122799033   1.04337   0.07627   0.69854  -0.74135
  51   39228.0    254.9   0.023651533   0.19849  -0.00637   0.25958  -0.36203
  52   39246.0    254.8   0.080194515   0.67270   0.09794  -0.40253   0.70787
  53   39624.2    252.4   0.000609263   0.00506  -0.00801  -0.01009   0.06997
  54   40046.6    249.7   0.186747727   1.53520  -0.03736   0.67787   1.03648
  55   40075.7    249.5   0.088320159   0.72553   0.34986   0.65057  -0.42412

FINAL SINGLE POINT ENERGY     -3806.905448849006

DIPOLE MOMENT
-------------
                                X             Y             Z
Electronic contribution:      8.18821     -10.92520     -56.15370
Nuclear contribution   :     -7.11822      10.38095      55.78480
                        -----------------------------------------
Total Dipole Moment    :      1.07000      -0.54426      -0.36890
                        -----------------------------------------
Magnitude (a.u.)       :      1.25587
Magnitude (Debye)      :      3.19216

Rotational constants in cm-1:     0.001404     0.000234     0.000214
Rotational constants in MHz :    42.098725     7.027633     6.407570

                             ****ORCA TERMINATED NORMALLY****
TOTAL RUN TIME: 0 days 0 hours 9 minutes 56 seconds 237 msec
