                         Program Version 4.2.0 -  RELEASE  -
|  1> # ORCA input file
|  2> # SCF done       -210.962927031256          0.000325045307
|  3> ! CAM-B3LYP def2-SVP def2/J RIJCOSX Grid4 TightSCF
|  4> %maxcore 5000
|  5> %tddft
|  6>     Mode sTDDFT
|  7>     Ethresh 5.0
|  8>     maxcore 5000
|  9> end
| 10>
| 11> %pal
| 12>   nprocs 6
| 13>   end
| 14> * xyz 0 1
| 15>    C        3.98877         6.11404        -1.95835
| 16>    C        3.62478         6.72602        -0.61250
| 17>    O        3.72832         7.86804        -0.28331
| 18>    O        3.14300         5.76735         0.19918
| 19>    C        3.23286         4.48380        -0.40643
| 20>    C        3.26142         4.77259        -1.91928
| 21>    C        3.85281         3.65222        -2.76581
| 22>    C        5.20330         3.17897        -2.24558
| 23>    C        5.14568         2.74838        -0.78680
| 24>    C        4.47792         3.75861         0.15985
| 25>    O        4.08107         2.98331         1.28428
| 26>    C        3.92581         1.68684         0.95734
| 27>    O        3.51744         0.86861         1.72373
| 28>    C        4.34867         1.46907        -0.49643
| 29>    C        5.13287         0.20375        -0.69346
| 30>    C        6.11553        -0.14891         0.23005
| 31>    C        6.81881        -1.31703         0.04855
| 32>    C        6.57274        -2.13169        -1.06686
| 33>    C        5.61452        -1.77198        -1.99969
| 34>    C        4.89742        -0.60480        -1.79928
| 35>    C        7.41689        -3.30652        -0.97090
| 36>    C        8.17835        -3.21570         0.20624
| 37>    C        7.91683        -1.90233         0.90947
| 38>    C        7.47072        -2.09618         2.36600
| 39>    C        6.18964        -2.91443         2.47649
| 40>    C        9.12918        -0.94538         0.80994
| 41>    C       10.44401        -1.48922         1.35277
| 42>    C        8.97968        -4.26145         0.59928
| 43>    C        9.08227        -5.39970        -0.21467
| 44>    C        8.33593        -5.46260        -1.39795
| 45>    C        7.49932        -4.43276        -1.77569
| 46>    C        9.89906        -6.52192         0.18272
| 47>    S        9.40008        -8.12639        -0.22652
| 48>    C       10.71768        -8.86638         0.62285
| 49>    C       11.53975        -7.88583         1.18670
| 50>    C       11.08111        -6.55450         0.92235
| 51>    C       11.86804        -5.46437         1.35053
| 52>    C       13.00926        -5.68680         2.06536
| 53>    S       14.03003        -4.33858         2.62206
| 54>    C       13.43786        -7.00788         2.38397
| 55>    O       14.56112        -7.23488         3.10740
| 56>    C       12.71728        -8.08108         1.93257
| 57>    C       10.86708       -10.27488         0.69362
| 58>    C       10.09345       -11.15836         0.02775
| 59>    C       10.19752       -12.59525         0.06990
| 60>    C        9.50801       -13.34467        -0.89751
| 61>    C        9.59478       -14.71431        -0.89139
| 62>    C       10.34968       -15.37757         0.09025
| 63>    C       11.02696       -14.65177         1.05867
| 64>    C       10.95015       -13.27395         1.03824
| 65>    C       10.25418       -16.80524        -0.14257
| 66>    C        9.45105       -17.01822        -1.27365
| 67>    C        8.97006       -15.70626        -1.84505
| 68>    C        9.48786       -15.50122        -3.28149
| 69>    C       11.00507       -15.59792        -3.38378
| 70>    C        7.43293       -15.61719        -1.83388
| 71>    C        6.84222       -15.75704        -0.43584
| 72>    C        9.20288       -18.29324        -1.72885
| 73>    C        9.74917       -19.38107        -1.04874
| 74>    C       10.55835       -19.16023         0.06310
| 75>    C       10.81357       -17.88142         0.52712
| 76>    C        9.50016       -20.79731        -1.50684
| 77>    C        9.15620       -20.83995        -2.99412
| 78>    O        9.89289       -20.61977        -3.90772
| 79>    O        7.86674       -21.17732        -3.16568
| 80>    C        7.18566       -21.34794        -1.93011
| 81>    C        8.29984       -21.53916        -0.88222
| 82>    C        7.89627       -21.18797         0.54640
| 83>    C        7.13626       -19.87389         0.66746
| 84>    C        5.92403       -19.80339        -0.25049
| 85>    C        6.21885       -20.15992        -1.71733
| 86>    O        4.95008       -20.51088        -2.25938
| 87>    C        4.10443       -20.91883        -1.29641
| 88>    O        3.01042       -21.33803        -1.52395
| 89>    C        4.76653       -20.74807         0.06379
| 90>    H        5.07290         5.99932        -2.00315
| 91>    H        3.67823         6.76501        -2.77235
| 92>    H        2.34375         3.92261        -0.10262
| 93>    H        2.22668         4.93958        -2.23944
| 94>    H        3.95992         4.00495        -3.79270
| 95>    H        3.14939         2.81768        -2.78091
| 96>    H        5.94006         3.97789        -2.34795
| 97>    H        5.55260         2.33495        -2.84300
| 98>    H        6.17064         2.58418        -0.43322
| 99>    H        5.17684         4.51766         0.52541
|100>    H        3.43472         1.43355        -1.09803
|101>    H        6.29388         0.47721         1.09229
|102>    H        5.41907        -2.39268        -2.86094
|103>    H        4.13413        -0.32168        -2.51044
|104>    H        7.31190        -1.11628         2.82069
|105>    H        8.26562        -2.59798         2.92033
|106>    H        5.36494        -2.40357         1.98531
|107>    H        5.92826        -3.05862         3.52206
|108>    H        6.31642        -3.89109         2.01387
|109>    H        8.87259        -0.02810         1.34433
|110>    H        9.27046        -0.68662        -0.24315
|111>    H       10.34389        -1.81202         2.38593
|112>    H       11.20348        -0.71054         1.31218
|113>    H       10.78327        -2.32569         0.74663
|114>    H        9.48004        -4.24596         1.55426
|115>    H        8.41715        -6.34536        -2.01568
|116>    H        6.91265        -4.50947        -2.67874
|117>    H       11.58054        -4.46017         1.08269
|118>    H       13.27309        -3.37690         2.10581
|119>    H       14.98202        -6.40035         3.35041
|120>    H       13.07797        -9.07121         2.15578
|121>    H       11.67563       -10.62136         1.32080
|122>    H        9.32609       -10.76524        -0.62934
|123>    H        8.92460       -12.82947        -1.64750
|124>    H       11.60682       -15.15471         1.81845
|125>    H       11.46904       -12.70884         1.79709
|126>    H        9.16229       -14.51899        -3.63077
|127>    H        9.03464       -16.25448        -3.92915
|128>    H       11.48207       -14.85725        -2.74533
|129>    H       11.32051       -15.42380        -4.40969
|130>    H       11.34819       -16.58520        -3.08314
|131>    H        7.03223       -16.40063        -2.48122
|132>    H        7.13466       -14.65528        -2.25531
|133>    H        7.14251       -16.69953         0.01772
|134>    H        5.75583       -15.72380        -0.48191
|135>    H        7.18383       -14.94833         0.20606
|136>    H        8.61152       -18.44757        -2.61920
|137>    H       11.00237       -20.00584         0.56880
|138>    H       11.44545       -17.72973         1.38908
|139>    H       10.42163       -21.36435        -1.34839
|140>    H        6.57308       -22.25122        -2.03079
|141>    H        8.55953       -22.60464        -0.89543
|142>    H        8.79346       -21.13978         1.16471
|143>    H        7.27892       -22.00127         0.93447
|144>    H        7.80229       -19.04465         0.42963
|145>    H        6.80374       -19.74578         1.69928
|146>    H        5.53880       -18.77760        -0.23437
|147>    H        6.58450       -19.30438        -2.28975
|148>    H        5.10846       -21.72613         0.40622
|149>    H        4.05763       -20.35779         0.79044
|150> *
|151>
|152>                          ****END OF INPUT****

CARTESIAN COORDINATES (ANGSTROEM)
---------------------------------
  C      3.988770    6.114040   -1.958350
  C      3.624780    6.726020   -0.612500
  O      3.728320    7.868040   -0.283310
  O      3.143000    5.767350    0.199180
  C      3.232860    4.483800   -0.406430
  C      3.261420    4.772590   -1.919280
  C      3.852810    3.652220   -2.765810
  C      5.203300    3.178970   -2.245580
  C      5.145680    2.748380   -0.786800
  C      4.477920    3.758610    0.159850
  O      4.081070    2.983310    1.284280
  C      3.925810    1.686840    0.957340
  O      3.517440    0.868610    1.723730
  C      4.348670    1.469070   -0.496430
  C      5.132870    0.203750   -0.693460
  C      6.115530   -0.148910    0.230050
  C      6.818810   -1.317030    0.048550
  C      6.572740   -2.131690   -1.066860
  C      5.614520   -1.771980   -1.999690
  C      4.897420   -0.604800   -1.799280
  C      7.416890   -3.306520   -0.970900
  C      8.178350   -3.215700    0.206240
  C      7.916830   -1.902330    0.909470
  C      7.470720   -2.096180    2.366000
  C      6.189640   -2.914430    2.476490
  C      9.129180   -0.945380    0.809940
  C     10.444010   -1.489220    1.352770
  C      8.979680   -4.261450    0.599280
  C      9.082270   -5.399700   -0.214670
  C      8.335930   -5.462600   -1.397950
  C      7.499320   -4.432760   -1.775690
  C      9.899060   -6.521920    0.182720
  S      9.400080   -8.126390   -0.226520
  C     10.717680   -8.866380    0.622850
  C     11.539750   -7.885830    1.186700
  C     11.081110   -6.554500    0.922350
  C     11.868040   -5.464370    1.350530
  C     13.009260   -5.686800    2.065360
  S     14.030030   -4.338580    2.622060
  C     13.437860   -7.007880    2.383970
  O     14.561120   -7.234880    3.107400
  C     12.717280   -8.081080    1.932570
  C     10.867080  -10.274880    0.693620
  C     10.093450  -11.158360    0.027750
  C     10.197520  -12.595250    0.069900
  C      9.508010  -13.344670   -0.897510
  C      9.594780  -14.714310   -0.891390
  C     10.349680  -15.377570    0.090250
  C     11.026960  -14.651770    1.058670
  C     10.950150  -13.273950    1.038240
  C     10.254180  -16.805240   -0.142570
  C      9.451050  -17.018220   -1.273650
  C      8.970060  -15.706260   -1.845050
  C      9.487860  -15.501220   -3.281490
  C     11.005070  -15.597920   -3.383780
  C      7.432930  -15.617190   -1.833880
  C      6.842220  -15.757040   -0.435840
  C      9.202880  -18.293240   -1.728850
  C      9.749170  -19.381070   -1.048740
  C     10.558350  -19.160230    0.063100
  C     10.813570  -17.881420    0.527120
  C      9.500160  -20.797310   -1.506840
  C      9.156200  -20.839950   -2.994120
  O      9.892890  -20.619770   -3.907720
  O      7.866740  -21.177320   -3.165680
  C      7.185660  -21.347940   -1.930110
  C      8.299840  -21.539160   -0.882220
  C      7.896270  -21.187970    0.546400
  C      7.136260  -19.873890    0.667460
  C      5.924030  -19.803390   -0.250490
  C      6.218850  -20.159920   -1.717330
  O      4.950080  -20.510880   -2.259380
  C      4.104430  -20.918830   -1.296410
  O      3.010420  -21.338030   -1.523950
  C      4.766530  -20.748070    0.063790
  H      5.072900    5.999320   -2.003150
  H      3.678230    6.765010   -2.772350
  H      2.343750    3.922610   -0.102620
  H      2.226680    4.939580   -2.239440
  H      3.959920    4.004950   -3.792700
  H      3.149390    2.817680   -2.780910
  H      5.940060    3.977890   -2.347950
  H      5.552600    2.334950   -2.843000
  H      6.170640    2.584180   -0.433220
  H      5.176840    4.517660    0.525410
  H      3.434720    1.433550   -1.098030
  H      6.293880    0.477210    1.092290
  H      5.419070   -2.392680   -2.860940
  H      4.134130   -0.321680   -2.510440
  H      7.311900   -1.116280    2.820690
  H      8.265620   -2.597980    2.920330
  H      5.364940   -2.403570    1.985310
  H      5.928260   -3.058620    3.522060
  H      6.316420   -3.891090    2.013870
  H      8.872590   -0.028100    1.344330
  H      9.270460   -0.686620   -0.243150
  H     10.343890   -1.812020    2.385930
  H     11.203480   -0.710540    1.312180
  H     10.783270   -2.325690    0.746630
  H      9.480040   -4.245960    1.554260
  H      8.417150   -6.345360   -2.015680
  H      6.912650   -4.509470   -2.678740
  H     11.580540   -4.460170    1.082690
  H     13.273090   -3.376900    2.105810
  H     14.982020   -6.400350    3.350410
  H     13.077970   -9.071210    2.155780
  H     11.675630  -10.621360    1.320800
  H      9.326090  -10.765240   -0.629340
  H      8.924600  -12.829470   -1.647500
  H     11.606820  -15.154710    1.818450
  H     11.469040  -12.708840    1.797090
  H      9.162290  -14.518990   -3.630770
  H      9.034640  -16.254480   -3.929150
  H     11.482070  -14.857250   -2.745330
  H     11.320510  -15.423800   -4.409690
  H     11.348190  -16.585200   -3.083140
  H      7.032230  -16.400630   -2.481220
  H      7.134660  -14.655280   -2.255310
  H      7.142510  -16.699530    0.017720
  H      5.755830  -15.723800   -0.481910
  H      7.183830  -14.948330    0.206060
  H      8.611520  -18.447570   -2.619200
  H     11.002370  -20.005840    0.568800
  H     11.445450  -17.729730    1.389080
  H     10.421630  -21.364350   -1.348390
  H      6.573080  -22.251220   -2.030790
  H      8.559530  -22.604640   -0.895430
  H      8.793460  -21.139780    1.164710
  H      7.278920  -22.001270    0.934470
  H      7.802290  -19.044650    0.429630
  H      6.803740  -19.745780    1.699280
  H      5.538800  -18.777600   -0.234370
  H      6.584500  -19.304380   -2.289750
  H      5.108460  -21.726130    0.406220
  H      4.057630  -20.357790    0.790440

 Total Charge           Charge          ....    0
 Multiplicity           Mult            ....    1
 Number of Electrons    NEL             ....  548
 Basis Dimension        Dim             .... 1358

ORBITAL ENERGIES
----------------

  NO   OCC          E(Eh)            E(eV)
   0   2.0000     -88.957172     -2420.6477
   1   2.0000     -88.943284     -2420.2698
   2   2.0000     -19.263064      -524.1746
   3   2.0000     -19.260468      -524.1040
   4   2.0000     -19.258681      -524.0554
   5   2.0000     -19.253900      -523.9252
   6   2.0000     -19.248265      -523.7719
   7   2.0000     -19.202335      -522.5221
   8   2.0000     -19.198195      -522.4094
   9   2.0000     -19.195430      -522.3342
  10   2.0000     -19.191983      -522.2404
  11   2.0000     -10.398491      -282.9573
  12   2.0000     -10.397087      -282.9191
  13   2.0000     -10.392727      -282.8005
  14   2.0000     -10.390639      -282.7437
  15   2.0000     -10.344968      -281.5009
  16   2.0000     -10.344680      -281.4931
  17   2.0000     -10.339505      -281.3522
  18   2.0000     -10.339185      -281.3435
  19   2.0000     -10.336823      -281.2792
  20   2.0000     -10.310804      -280.5712
  21   2.0000     -10.299106      -280.2529
  22   2.0000     -10.299040      -280.2511
  23   2.0000     -10.298200      -280.2283
  24   2.0000     -10.298084      -280.2251
  25   2.0000     -10.294159      -280.1183
  26   2.0000     -10.292623      -280.0765
  27   2.0000     -10.292376      -280.0698
  28   2.0000     -10.290982      -280.0319
  29   2.0000     -10.289561      -279.9932
  30   2.0000     -10.288523      -279.9649
  31   2.0000     -10.287297      -279.9316
  32   2.0000     -10.286998      -279.9234
  33   2.0000     -10.285917      -279.8940
  34   2.0000     -10.284700      -279.8609
  35   2.0000     -10.283594      -279.8308
  36   2.0000     -10.282147      -279.7915
  37   2.0000     -10.281325      -279.7691
  38   2.0000     -10.280420      -279.7445
  39   2.0000     -10.278611      -279.6952
  40   2.0000     -10.278347      -279.6880
  41   2.0000     -10.277440      -279.6634
  42   2.0000     -10.276504      -279.6379
  43   2.0000     -10.275769      -279.6179
  44   2.0000     -10.275628      -279.6140
  45   2.0000     -10.275017      -279.5974
  46   2.0000     -10.274428      -279.5814
  47   2.0000     -10.274314      -279.5783
  48   2.0000     -10.274191      -279.5750
  49   2.0000     -10.273556      -279.5577
  50   2.0000     -10.273430      -279.5542
  51   2.0000     -10.273102      -279.5453
  52   2.0000     -10.272899      -279.5398
  53   2.0000     -10.272827      -279.5378
  54   2.0000     -10.272807      -279.5373
  55   2.0000     -10.272497      -279.5289
  56   2.0000     -10.272344      -279.5247
  57   2.0000     -10.271747      -279.5085
  58   2.0000     -10.271577      -279.5038
  59   2.0000     -10.271037      -279.4891
  60   2.0000     -10.270930      -279.4862
  61   2.0000     -10.270265      -279.4681
  62   2.0000     -10.267640      -279.3967
  63   2.0000     -10.267569      -279.3947
  64   2.0000     -10.266394      -279.3628
  65   2.0000     -10.266159      -279.3564
  66   2.0000     -10.265728      -279.3447
  67   2.0000     -10.265599      -279.3412
  68   2.0000     -10.265361      -279.3347
  69   2.0000     -10.263230      -279.2767
  70   2.0000     -10.262602      -279.2596
  71   2.0000     -10.260174      -279.1935
  72   2.0000     -10.251324      -278.9527
  73   2.0000     -10.243168      -278.7308
  74   2.0000     -10.241346      -278.6812
  75   2.0000      -8.052078      -219.1082
  76   2.0000      -8.038930      -218.7504
  77   2.0000      -6.020991      -163.8395
  78   2.0000      -6.017029      -163.7317
  79   2.0000      -6.014946      -163.6750
  80   2.0000      -6.009310      -163.5216
  81   2.0000      -6.005211      -163.4101
  82   2.0000      -5.998943      -163.2395
  83   2.0000      -1.202362       -32.7179
  84   2.0000      -1.196671       -32.5631
  85   2.0000      -1.193882       -32.4872
  86   2.0000      -1.187818       -32.3222
  87   2.0000      -1.146226       -31.1904
  88   2.0000      -1.111717       -30.2513
  89   2.0000      -1.105485       -30.0818
  90   2.0000      -1.105113       -30.0716
  91   2.0000      -1.098966       -29.9044
  92   2.0000      -0.995364       -27.0852
  93   2.0000      -0.988854       -26.9081
  94   2.0000      -0.988305       -26.8932
  95   2.0000      -0.959871       -26.1194
  96   2.0000      -0.954926       -25.9849
  97   2.0000      -0.946348       -25.7514
  98   2.0000      -0.940522       -25.5929
  99   2.0000      -0.937286       -25.5049
 100   2.0000      -0.924331       -25.1523
 101   2.0000      -0.919480       -25.0203
 102   2.0000      -0.904619       -24.6159
 103   2.0000      -0.898861       -24.4593
 104   2.0000      -0.892809       -24.2946
 105   2.0000      -0.883392       -24.0383
 106   2.0000      -0.874790       -23.8042
 107   2.0000      -0.869572       -23.6623
 108   2.0000      -0.857937       -23.3456
 109   2.0000      -0.853325       -23.2201
 110   2.0000      -0.848125       -23.0787
 111   2.0000      -0.844389       -22.9770
 112   2.0000      -0.841628       -22.9019
 113   2.0000      -0.838766       -22.8240
 114   2.0000      -0.836814       -22.7709
 115   2.0000      -0.834094       -22.6968
 116   2.0000      -0.833188       -22.6722
 117   2.0000      -0.831022       -22.6133
 118   2.0000      -0.827775       -22.5249
 119   2.0000      -0.820642       -22.3308
 120   2.0000      -0.810430       -22.0529
 121   2.0000      -0.803533       -21.8653
 122   2.0000      -0.793129       -21.5821
 123   2.0000      -0.786511       -21.4021
 124   2.0000      -0.768437       -20.9102
 125   2.0000      -0.762455       -20.7474
 126   2.0000      -0.760389       -20.6912
 127   2.0000      -0.744476       -20.2582
 128   2.0000      -0.738384       -20.0925
 129   2.0000      -0.735276       -20.0079
 130   2.0000      -0.727854       -19.8059
 131   2.0000      -0.717763       -19.5313
 132   2.0000      -0.713711       -19.4211
 133   2.0000      -0.709950       -19.3187
 134   2.0000      -0.707568       -19.2539
 135   2.0000      -0.697494       -18.9798
 136   2.0000      -0.693237       -18.8639
 137   2.0000      -0.684687       -18.6313
 138   2.0000      -0.679930       -18.5018
 139   2.0000      -0.676675       -18.4133
 140   2.0000      -0.675254       -18.3746
 141   2.0000      -0.673861       -18.3367
 142   2.0000      -0.665596       -18.1118
 143   2.0000      -0.664704       -18.0875
 144   2.0000      -0.659034       -17.9332
 145   2.0000      -0.656651       -17.8684
 146   2.0000      -0.655282       -17.8311
 147   2.0000      -0.653291       -17.7770
 148   2.0000      -0.642932       -17.4951
 149   2.0000      -0.635438       -17.2911
 150   2.0000      -0.628818       -17.1110
 151   2.0000      -0.628117       -17.0919
 152   2.0000      -0.620901       -16.8956
 153   2.0000      -0.614999       -16.7350
 154   2.0000      -0.611172       -16.6308
 155   2.0000      -0.610170       -16.6036
 156   2.0000      -0.602925       -16.4064
 157   2.0000      -0.598444       -16.2845
 158   2.0000      -0.595430       -16.2025
 159   2.0000      -0.593063       -16.1381
 160   2.0000      -0.587937       -15.9986
 161   2.0000      -0.577726       -15.7207
 162   2.0000      -0.575569       -15.6620
 163   2.0000      -0.571001       -15.5377
 164   2.0000      -0.568468       -15.4688
 165   2.0000      -0.566262       -15.4088
 166   2.0000      -0.562924       -15.3179
 167   2.0000      -0.556412       -15.1407
 168   2.0000      -0.553803       -15.0698
 169   2.0000      -0.550693       -14.9851
 170   2.0000      -0.547502       -14.8983
 171   2.0000      -0.544290       -14.8109
 172   2.0000      -0.543860       -14.7992
 173   2.0000      -0.543232       -14.7821
 174   2.0000      -0.540915       -14.7190
 175   2.0000      -0.539736       -14.6870
 176   2.0000      -0.537562       -14.6278
 177   2.0000      -0.534798       -14.5526
 178   2.0000      -0.533379       -14.5140
 179   2.0000      -0.532212       -14.4822
 180   2.0000      -0.528705       -14.3868
 181   2.0000      -0.528074       -14.3696
 182   2.0000      -0.525742       -14.3062
 183   2.0000      -0.523988       -14.2584
 184   2.0000      -0.522461       -14.2169
 185   2.0000      -0.521732       -14.1971
 186   2.0000      -0.520351       -14.1595
 187   2.0000      -0.518375       -14.1057
 188   2.0000      -0.516364       -14.0510
 189   2.0000      -0.515555       -14.0290
 190   2.0000      -0.512327       -13.9411
 191   2.0000      -0.511437       -13.9169
 192   2.0000      -0.508656       -13.8412
 193   2.0000      -0.506635       -13.7862
 194   2.0000      -0.501019       -13.6334
 195   2.0000      -0.499846       -13.6015
 196   2.0000      -0.497782       -13.5453
 197   2.0000      -0.495354       -13.4793
 198   2.0000      -0.491978       -13.3874
 199   2.0000      -0.490297       -13.3417
 200   2.0000      -0.488240       -13.2857
 201   2.0000      -0.484945       -13.1960
 202   2.0000      -0.482145       -13.1198
 203   2.0000      -0.480803       -13.0833
 204   2.0000      -0.476565       -12.9680
 205   2.0000      -0.473063       -12.8727
 206   2.0000      -0.470691       -12.8081
 207   2.0000      -0.469078       -12.7643
 208   2.0000      -0.468024       -12.7356
 209   2.0000      -0.466651       -12.6982
 210   2.0000      -0.464999       -12.6533
 211   2.0000      -0.464393       -12.6368
 212   2.0000      -0.463634       -12.6161
 213   2.0000      -0.461495       -12.5579
 214   2.0000      -0.460469       -12.5300
 215   2.0000      -0.458640       -12.4802
 216   2.0000      -0.457166       -12.4401
 217   2.0000      -0.454599       -12.3703
 218   2.0000      -0.453174       -12.3315
 219   2.0000      -0.451031       -12.2732
 220   2.0000      -0.448689       -12.2095
 221   2.0000      -0.447395       -12.1742
 222   2.0000      -0.445847       -12.1321
 223   2.0000      -0.443944       -12.0803
 224   2.0000      -0.443585       -12.0706
 225   2.0000      -0.442237       -12.0339
 226   2.0000      -0.438881       -11.9426
 227   2.0000      -0.435446       -11.8491
 228   2.0000      -0.433934       -11.8079
 229   2.0000      -0.432957       -11.7814
 230   2.0000      -0.431827       -11.7506
 231   2.0000      -0.429783       -11.6950
 232   2.0000      -0.424972       -11.5641
 233   2.0000      -0.424914       -11.5625
 234   2.0000      -0.422370       -11.4933
 235   2.0000      -0.420761       -11.4495
 236   2.0000      -0.419306       -11.4099
 237   2.0000      -0.418704       -11.3935
 238   2.0000      -0.415459       -11.3052
 239   2.0000      -0.413917       -11.2632
 240   2.0000      -0.410017       -11.1571
 241   2.0000      -0.406278       -11.0554
 242   2.0000      -0.405897       -11.0450
 243   2.0000      -0.404692       -11.0122
 244   2.0000      -0.401787       -10.9332
 245   2.0000      -0.398281       -10.8378
 246   2.0000      -0.397411       -10.8141
 247   2.0000      -0.396853       -10.7989
 248   2.0000      -0.393407       -10.7052
 249   2.0000      -0.390188       -10.6176
 250   2.0000      -0.388774       -10.5791
 251   2.0000      -0.387192       -10.5360
 252   2.0000      -0.386573       -10.5192
 253   2.0000      -0.383068       -10.4238
 254   2.0000      -0.382408       -10.4059
 255   2.0000      -0.381523       -10.3818
 256   2.0000      -0.370232       -10.0745
 257   2.0000      -0.359921        -9.7939
 258   2.0000      -0.356284        -9.6950
 259   2.0000      -0.353612        -9.6223
 260   2.0000      -0.349145        -9.5007
 261   2.0000      -0.342740        -9.3264
 262   2.0000      -0.341366        -9.2890
 263   2.0000      -0.337803        -9.1921
 264   2.0000      -0.335572        -9.1314
 265   2.0000      -0.323462        -8.8019
 266   2.0000      -0.322900        -8.7866
 267   2.0000      -0.316976        -8.6254
 268   2.0000      -0.316562        -8.6141
 269   2.0000      -0.314089        -8.5468
 270   2.0000      -0.286752        -7.8029
 271   2.0000      -0.282289        -7.6815
 272   2.0000      -0.271266        -7.3815
 273   2.0000      -0.220314        -5.9950
 274   0.0000      -0.055248        -1.5034
 275   0.0000      -0.013278        -0.3613
 276   0.0000      -0.002065        -0.0562
 277   0.0000       0.015150         0.4122
 278   0.0000       0.016939         0.4609

MULLIKEN ATOMIC CHARGES
-----------------------
   0 C :    0.024334
   1 C :    0.137884
   2 O :   -0.157675
   3 O :   -0.262144
   4 C :    0.152388
   5 C :   -0.130576
   6 C :    0.089390
   7 C :    0.095525
   8 C :   -0.050026
   9 C :    0.166930
  10 O :   -0.259227
  11 C :    0.184768
  12 O :   -0.145080
  13 C :   -0.088512
  14 C :    0.094055
  15 C :   -0.081445
  16 C :    0.002095
  17 C :    0.107185
  18 C :   -0.056441
  19 C :   -0.023381
  20 C :    0.104450
  21 C :    0.017172
  22 C :   -0.130623
  23 C :    0.053218
  24 C :    0.023324
  25 C :    0.082382
  26 C :    0.005531
  27 C :   -0.119775
  28 C :    0.103269
  29 C :   -0.022811
  30 C :   -0.050231
  31 C :   -0.138612
  32 S :    0.139855
  33 C :   -0.115912
  34 C :    0.126483
  35 C :    0.147260
  36 C :   -0.061910
  37 C :   -0.067593
  38 S :   -0.016773
  39 C :    0.128277
  40 O :   -0.174473
  41 C :   -0.111959
  42 C :    0.025444
  43 C :   -0.029749
  44 C :    0.131583
  45 C :   -0.113507
  46 C :    0.018205
  47 C :    0.104164
  48 C :   -0.044374
  49 C :   -0.017809
  50 C :    0.118124
  51 C :    0.015849
  52 C :   -0.140600
  53 C :    0.067823
  54 C :    0.026420
  55 C :    0.068427
  56 C :    0.022516
  57 C :   -0.087474
  58 C :   -0.003007
  59 C :   -0.009953
  60 C :   -0.061329
  61 C :   -0.000038
  62 C :    0.156891
  63 O :   -0.154139
  64 O :   -0.262157
  65 C :    0.171538
  66 C :   -0.079229
  67 C :    0.089490
  68 C :    0.090011
  69 C :   -0.137547
  70 C :    0.161499
  71 O :   -0.266905
  72 C :    0.135746
  73 O :   -0.159691
  74 C :    0.029765
  75 H :    0.042643
  76 H :    0.045182
  77 H :    0.020009
  78 H :    0.020416
  79 H :    0.012274
  80 H :    0.005633
  81 H :    0.006700
  82 H :    0.012175
  83 H :    0.011874
  84 H :    0.018412
  85 H :    0.022857
  86 H :   -0.027659
  87 H :   -0.036821
  88 H :   -0.036922
  89 H :    0.001428
  90 H :    0.005425
  91 H :    0.032886
  92 H :    0.012337
  93 H :    0.017889
  94 H :   -0.003559
  95 H :    0.002376
  96 H :    0.007915
  97 H :    0.013837
  98 H :    0.036864
  99 H :   -0.029295
 100 H :   -0.020861
 101 H :   -0.035111
 102 H :   -0.072904
 103 H :    0.077856
 104 H :    0.181199
 105 H :   -0.032797
 106 H :   -0.016393
 107 H :   -0.021944
 108 H :   -0.043116
 109 H :   -0.039687
 110 H :   -0.033075
 111 H :   -0.003138
 112 H :    0.005304
 113 H :    0.021185
 114 H :    0.010332
 115 H :    0.025949
 116 H :   -0.002760
 117 H :   -0.000429
 118 H :    0.010555
 119 H :    0.012987
 120 H :    0.024688
 121 H :   -0.005490
 122 H :   -0.027992
 123 H :   -0.034825
 124 H :    0.025894
 125 H :    0.016344
 126 H :    0.014683
 127 H :    0.001104
 128 H :    0.003439
 129 H :    0.047409
 130 H :    0.003479
 131 H :    0.017682
 132 H :    0.008180
 133 H :    0.039426
 134 H :    0.041370
Sum of atomic charges:   -0.0000000

LOEWDIN ATOMIC CHARGES
----------------------
   0 C :   -0.058591
   1 C :    0.074684
   2 O :   -0.146980
   3 O :   -0.075115
   4 C :    0.066673
   5 C :   -0.040060
   6 C :   -0.027674
   7 C :   -0.026631
   8 C :   -0.029307
   9 C :    0.066930
  10 O :   -0.071137
  11 C :    0.077575
  12 O :   -0.142003
  13 C :   -0.054756
  14 C :   -0.012624
  15 C :   -0.019816
  16 C :    0.009652
  17 C :   -0.017913
  18 C :   -0.018079
  19 C :   -0.030997
  20 C :   -0.018636
  21 C :    0.003619
  22 C :   -0.034418
  23 C :   -0.015112
  24 C :   -0.055592
  25 C :   -0.008315
  26 C :   -0.063058
  27 C :   -0.023877
  28 C :   -0.038149
  29 C :   -0.026267
  30 C :   -0.016328
  31 C :   -0.170468
  32 S :    0.477180
  33 C :   -0.189740
  34 C :   -0.036886
  35 C :   -0.053046
  36 C :   -0.046548
  37 C :   -0.173888
  38 S :    0.207312
  39 C :    0.034526
  40 O :   -0.049543
  41 C :   -0.054995
  42 C :   -0.032505
  43 C :   -0.036863
  44 C :   -0.018853
  45 C :   -0.024474
  46 C :    0.003133
  47 C :   -0.024924
  48 C :   -0.016566
  49 C :   -0.018422
  50 C :   -0.016160
  51 C :    0.006919
  52 C :   -0.035510
  53 C :   -0.010592
  54 C :   -0.056488
  55 C :   -0.011142
  56 C :   -0.060105
  57 C :   -0.032582
  58 C :   -0.019324
  59 C :   -0.029170
  60 C :   -0.017743
  61 C :   -0.049812
  62 C :    0.077569
  63 O :   -0.146988
  64 O :   -0.069796
  65 C :    0.068136
  66 C :   -0.031891
  67 C :   -0.027504
  68 C :   -0.029012
  69 C :   -0.038440
  70 C :    0.065896
  71 O :   -0.076555
  72 C :    0.073937
  73 O :   -0.150005
  74 C :   -0.058429
  75 H :    0.040815
  76 H :    0.046094
  77 H :    0.029602
  78 H :    0.034893
  79 H :    0.032424
  80 H :    0.022821
  81 H :    0.024281
  82 H :    0.033695
  83 H :    0.033443
  84 H :    0.029907
  85 H :    0.041130
  86 H :    0.024157
  87 H :    0.026464
  88 H :    0.022753
  89 H :    0.021847
  90 H :    0.019073
  91 H :    0.029603
  92 H :    0.025800
  93 H :    0.024569
  94 H :    0.020186
  95 H :    0.025647
  96 H :    0.020818
  97 H :    0.027371
  98 H :    0.021058
  99 H :    0.026123
 100 H :    0.021393
 101 H :    0.027291
 102 H :    0.023539
 103 H :   -0.014326
 104 H :    0.074681
 105 H :    0.031988
 106 H :    0.030464
 107 H :    0.017946
 108 H :    0.023218
 109 H :    0.025818
 110 H :    0.024465
 111 H :    0.019825
 112 H :    0.022546
 113 H :    0.025212
 114 H :    0.025317
 115 H :    0.027319
 116 H :    0.018735
 117 H :    0.021551
 118 H :    0.020059
 119 H :    0.023923
 120 H :    0.028412
 121 H :    0.024435
 122 H :    0.023670
 123 H :    0.027322
 124 H :    0.048706
 125 H :    0.029811
 126 H :    0.035635
 127 H :    0.030253
 128 H :    0.023302
 129 H :    0.031544
 130 H :    0.030234
 131 H :    0.034231
 132 H :    0.025008
 133 H :    0.039615
 134 H :    0.044943

  Mayer bond orders larger than 0.100000
B(  0-C ,  1-C ) :   0.9623 B(  0-C ,  5-C ) :   1.0234 B(  0-C , 75-H ) :   0.9270
B(  0-C , 76-H ) :   0.9306 B(  1-C ,  2-O ) :   2.2364 B(  1-C ,  3-O ) :   1.1203
B(  3-O ,  4-C ) :   0.9638 B(  4-C ,  5-C ) :   1.0187 B(  4-C ,  9-C ) :   0.9611
B(  4-C , 77-H ) :   0.9209 B(  5-C ,  6-C ) :   1.0594 B(  5-C , 78-H ) :   0.9161
B(  6-C ,  7-C ) :   1.0721 B(  6-C , 79-H ) :   0.9272 B(  6-C , 80-H ) :   0.9372
B(  7-C ,  8-C ) :   1.0679 B(  7-C , 81-H ) :   0.9366 B(  7-C , 82-H ) :   0.9206
B(  8-C ,  9-C ) :   1.0089 B(  8-C , 13-C ) :   0.9801 B(  8-C , 83-H ) :   0.9058
B(  9-C , 10-O ) :   0.9626 B(  9-C , 84-H ) :   0.9188 B( 10-O , 11-C ) :   1.1315
B( 11-C , 12-O ) :   2.2592 B( 11-C , 13-C ) :   0.8800 B( 13-C , 14-C ) :   0.9851
B( 13-C , 85-H ) :   0.8857 B( 14-C , 15-C ) :   1.3282 B( 14-C , 19-C ) :   1.4053
B( 15-C , 16-C ) :   1.4088 B( 15-C , 86-H ) :   0.9892 B( 16-C , 17-C ) :   1.3770
B( 16-C , 22-C ) :   0.9223 B( 17-C , 18-C ) :   1.3613 B( 17-C , 20-C ) :   0.9878
B( 18-C , 19-C ) :   1.3582 B( 18-C , 87-H ) :   0.9915 B( 19-C , 88-H ) :   0.9901
B( 20-C , 21-C ) :   1.3876 B( 20-C , 30-C ) :   1.3380 B( 21-C , 22-C ) :   0.9146
B( 21-C , 27-C ) :   1.3970 B( 22-C , 23-C ) :   1.0368 B( 22-C , 25-C ) :   1.0140
B( 23-C , 24-C ) :   1.1073 B( 23-C , 89-H ) :   0.9365 B( 23-C , 90-H ) :   0.9377
B( 24-C , 91-H ) :   0.9617 B( 24-C , 92-H ) :   0.9640 B( 24-C , 93-H ) :   0.9654
B( 25-C , 26-C ) :   1.1211 B( 25-C , 94-H ) :   0.9362 B( 25-C , 95-H ) :   0.9378
B( 26-C , 96-H ) :   0.9636 B( 26-C , 97-H ) :   0.9530 B( 26-C , 98-H ) :   0.9592
B( 27-C , 28-C ) :   1.3092 B( 27-C , 99-H ) :   0.9983 B( 28-C , 29-C ) :   1.3454
B( 28-C , 31-C ) :   1.0340 B( 29-C , 30-C ) :   1.3869 B( 29-C ,100-H ) :   0.9847
B( 30-C ,101-H ) :   0.9918 B( 31-C , 32-S ) :   1.1683 B( 31-C , 33-C ) :   0.1168
B( 31-C , 35-C ) :   1.3924 B( 32-S , 33-C ) :   1.1221 B( 33-C , 34-C ) :   1.3457
B( 33-C , 42-C ) :   1.1751 B( 34-C , 35-C ) :   1.1903 B( 34-C , 41-C ) :   1.1675
B( 35-C , 36-C ) :   1.1942 B( 36-C , 37-C ) :   1.5528 B( 36-C ,102-H ) :   0.9811
B( 37-C , 38-S ) :   1.0024 B( 37-C , 39-C ) :   1.1795 B( 38-S ,103-H ) :   0.9527
B( 39-C , 40-O ) :   1.2640 B( 39-C , 41-C ) :   1.5310 B( 40-O ,104-H ) :   0.9512
B( 41-C ,105-H ) :   1.0014 B( 42-C , 43-C ) :   1.6633 B( 42-C ,106-H ) :   0.9626
B( 43-C , 44-C ) :   1.0753 B( 43-C ,107-H ) :   0.9799 B( 44-C , 45-C ) :   1.2844
B( 44-C , 49-C ) :   1.3458 B( 45-C , 46-C ) :   1.3777 B( 45-C ,108-H ) :   1.0141
B( 46-C , 47-C ) :   1.3748 B( 46-C , 52-C ) :   0.9117 B( 47-C , 48-C ) :   1.3334
B( 47-C , 50-C ) :   0.9852 B( 48-C , 49-C ) :   1.3984 B( 48-C ,109-H ) :   0.9897
B( 49-C ,110-H ) :   0.9840 B( 50-C , 51-C ) :   1.3794 B( 50-C , 60-C ) :   1.3456
B( 51-C , 52-C ) :   0.9160 B( 51-C , 57-C ) :   1.3691 B( 52-C , 53-C ) :   1.0387
B( 52-C , 55-C ) :   1.0395 B( 53-C , 54-C ) :   1.1019 B( 53-C ,111-H ) :   0.9383
B( 53-C ,112-H ) :   0.9395 B( 54-C ,113-H ) :   0.9649 B( 54-C ,114-H ) :   0.9634
B( 54-C ,115-H ) :   0.9636 B( 55-C , 56-C ) :   1.0997 B( 55-C ,116-H ) :   0.9402
B( 55-C ,117-H ) :   0.9366 B( 56-C ,118-H ) :   0.9641 B( 56-C ,119-H ) :   0.9613
B( 56-C ,120-H ) :   0.9559 B( 57-C , 58-C ) :   1.3470 B( 57-C ,121-H ) :   0.9805
B( 58-C , 59-C ) :   1.3997 B( 58-C , 61-C ) :   0.9911 B( 59-C , 60-C ) :   1.3640
B( 59-C ,122-H ) :   0.9890 B( 60-C ,123-H ) :   0.9933 B( 61-C , 62-C ) :   0.9013
B( 61-C , 66-C ) :   1.0016 B( 61-C ,124-H ) :   0.8825 B( 62-C , 63-O ) :   2.2503
B( 62-C , 64-O ) :   1.1246 B( 64-O , 65-C ) :   0.9636 B( 65-C , 66-C ) :   1.0177
B( 65-C , 70-C ) :   0.9655 B( 65-C ,125-H ) :   0.9169 B( 66-C , 67-C ) :   1.0741
B( 66-C ,126-H ) :   0.9057 B( 67-C , 68-C ) :   1.0637 B( 67-C ,127-H ) :   0.9185
B( 67-C ,128-H ) :   0.9358 B( 68-C , 69-C ) :   1.0655 B( 68-C ,129-H ) :   0.9313
B( 68-C ,130-H ) :   0.9221 B( 69-C , 70-C ) :   1.0218 B( 69-C , 74-C ) :   1.0220
B( 69-C ,131-H ) :   0.9131 B( 70-C , 71-O ) :   0.9519 B( 70-C ,132-H ) :   0.9155
B( 71-O , 72-C ) :   1.1208 B( 72-C , 73-O ) :   2.2360 B( 72-C , 74-C ) :   0.9614
B( 74-C ,133-H ) :   0.9270 B( 74-C ,134-H ) :   0.9299

-----------------------------------------------------------------------------
         ABSORPTION SPECTRUM VIA TRANSITION ELECTRIC DIPOLE MOMENTS
-----------------------------------------------------------------------------
State   Energy  Wavelength   fosc         T2         TX        TY        TZ
        (cm-1)    (nm)                  (au**2)     (au)      (au)      (au)
-----------------------------------------------------------------------------
   0   20451.9    489.0   1.330617825  21.41877   0.80230  -4.55738   0.07312
   1   29455.0    339.5   0.115395182   1.28975   0.48513   0.96594   0.34837
   2   31147.0    321.1   0.079206673   0.83719  -0.49634   0.76709  -0.04908
   3   31626.9    316.2   0.850519352   8.85326   2.37981   1.23086   1.29412
   4   33491.2    298.6   0.128023022   1.25844  -0.46386   1.01254  -0.13431
   5   34315.0    291.4   0.104198918   0.99967  -0.13051  -0.95213  -0.27583
   6   35182.3    284.2   0.252037943   2.35840   0.74939  -1.33164   0.15341
   7   35651.8    280.5   0.063284455   0.58437   0.06153  -0.76008  -0.05353
   8   37293.6    268.1   0.000159965   0.00141  -0.03332  -0.00734  -0.01576
   9   39279.8    254.6   0.012859200   0.10778   0.29550   0.10460   0.09754
  10   39487.2    253.2   0.008002121   0.06672   0.08051  -0.17582  -0.17123
  11   40171.9    248.9   0.038207008   0.31311  -0.13580  -0.37459  -0.39287

FINAL SINGLE POINT ENERGY     -3944.300957855341

DIPOLE MOMENT
-------------
                                X             Y             Z
Electronic contribution:     10.72461      10.17561       4.72929
Nuclear contribution   :     -9.08266      -9.16969      -4.62245
                        -----------------------------------------
Total Dipole Moment    :      1.64195       1.00593       0.10684
                        -----------------------------------------
Magnitude (a.u.)       :      1.92855
Magnitude (Debye)      :      4.90199

Rotational constants in cm-1:     0.001533     0.000194     0.000178
Rotational constants in MHz :    45.951897     5.818094     5.344805

                             ****ORCA TERMINATED NORMALLY****
TOTAL RUN TIME: 0 days 0 hours 14 minutes 1 seconds 689 msec
