                         Program Version 4.2.0 -  RELEASE  -
|  1> # ORCA input file
|  2> # SCF done       -118.058216900732          0.000857346776
|  3> ! CAM-B3LYP def2-SVP def2/J RIJCOSX Grid4 TightSCF
|  4> %maxcore 5000
|  5> %tddft
|  6>     Mode sTDDFT
|  7>     Ethresh 5.0
|  8>     maxcore 5000
|  9> end
| 10>
| 11> %pal
| 12>   nprocs 6
| 13>   end
| 14> * xyz 0 1
| 15>    C        1.07025        -0.94372        -1.73596
| 16>    C        1.46523         0.40007        -1.74724
| 17>    C        2.49033         0.66317        -0.87796
| 18>    S        3.22760         2.22660        -0.63194
| 19>    C        4.51342         1.82007         0.58204
| 20>    S        2.97902        -0.76403        -0.02321
| 21>    C        1.78426        -1.72763        -0.85981
| 22>    C        1.69182        -3.11630        -0.56026
| 23>    C        0.83827        -3.98176        -1.14976
| 24>    C        0.75198        -5.36914        -0.83949
| 25>    N       -0.11674        -6.19299        -1.49561
| 26>    C       -0.00953        -7.46796        -1.01663
| 27>    C        0.96017        -7.45839        -0.01836
| 28>    C        1.43221        -6.15446         0.08993
| 29>    C       -0.77018        -8.51998        -1.50874
| 30>    C       -1.42114        -9.45446        -1.92965
| 31>    C       -2.17216       -10.50040        -2.43825
| 32>    S       -3.20297       -10.27382        -3.82701
| 33>    C       -3.70110       -11.95004        -3.78602
| 34>    C       -3.08377       -12.62110        -2.75034
| 35>    C       -2.22784       -11.80146        -1.98841
| 36>    C       -1.43128       -12.29281        -0.82072
| 37>    C       -1.98585       -13.63309        -0.31898
| 38>    C       -1.07714       -14.19796         0.65232
| 39>    N       -0.33077       -14.63072         1.40120
| 40>    C       -2.16234       -14.59159        -1.51641
| 41>    C       -2.50724       -15.91843        -1.05881
| 42>    N       -2.81838       -16.95704        -0.69944
| 43>    C       -3.27432       -14.07368        -2.44179
| 44>    C       -4.63126       -12.41775        -4.76347
| 45>    N       -4.93428       -11.66430        -5.86220
| 46>    C       -5.84600       -12.31380        -6.64010
| 47>    C       -6.14351       -13.51605        -6.02001
| 48>    C       -5.38673       -13.58189        -4.84826
| 49>    C       -6.32799       -11.77132        -7.83502
| 50>    C       -6.73556       -11.28995        -8.86738
| 51>    C       -7.20265       -10.73199       -10.06900
| 52>    C       -6.58910       -10.96072       -11.32485
| 53>    C       -7.21655       -10.30597       -12.34244
| 54>    S       -6.73087       -10.35535       -14.02023
| 55>    C       -7.99332        -9.29828       -14.78244
| 56>    S       -8.58384        -9.38945       -11.78161
| 57>    C       -8.30357        -9.89745       -10.14061
| 58>    C       -9.13723        -9.47430        -9.05535
| 59>    C      -10.18684        -8.66276        -9.16784
| 60>    H        0.27918        -1.32520        -2.35572
| 61>    H        1.02234         1.15856        -2.36660
| 62>    H        5.03690         2.74632         0.79581
| 63>    H        5.19574         1.09001         0.15604
| 64>    H        4.05061         1.43039         1.48445
| 65>    H        2.36980        -3.48036         0.19874
| 66>    H        0.16207        -3.62508        -1.91600
| 67>    H       -0.74530        -5.90794        -2.22860
| 68>    H        1.27474        -8.30978         0.55232
| 69>    H        2.18646        -5.81239         0.76978
| 70>    H       -1.44635       -11.55037        -0.01823
| 71>    H       -0.38376       -12.42060        -1.11861
| 72>    H       -2.95893       -13.48115         0.16493
| 73>    H       -1.21426       -14.65157        -2.06577
| 74>    H       -4.24537       -14.22225        -1.95535
| 75>    H       -3.27680       -14.65395        -3.36785
| 76>    H       -4.53532       -10.76340        -6.07093
| 77>    H       -6.83176       -14.25412        -6.38076
| 78>    H       -5.41557       -14.38166        -4.13743
| 79>    H       -5.72397       -11.58263       -11.46362
| 80>    H       -7.76796        -9.27178       -15.84358
| 81>    H       -7.93529        -8.29921       -14.35980
| 82>    H       -8.97692        -9.72852       -14.61663
| 83>    H       -8.84834        -9.87596        -8.09183
| 84>    H      -10.48749        -8.25885       -10.12112
| 85>    H      -10.77727        -8.38187        -8.31445
| 86> *
| 87>
| 88>                          ****END OF INPUT****

CARTESIAN COORDINATES (ANGSTROEM)
---------------------------------
  C      1.070250   -0.943720   -1.735960
  C      1.465230    0.400070   -1.747240
  C      2.490330    0.663170   -0.877960
  S      3.227600    2.226600   -0.631940
  C      4.513420    1.820070    0.582040
  S      2.979020   -0.764030   -0.023210
  C      1.784260   -1.727630   -0.859810
  C      1.691820   -3.116300   -0.560260
  C      0.838270   -3.981760   -1.149760
  C      0.751980   -5.369140   -0.839490
  N     -0.116740   -6.192990   -1.495610
  C     -0.009530   -7.467960   -1.016630
  C      0.960170   -7.458390   -0.018360
  C      1.432210   -6.154460    0.089930
  C     -0.770180   -8.519980   -1.508740
  C     -1.421140   -9.454460   -1.929650
  C     -2.172160  -10.500400   -2.438250
  S     -3.202970  -10.273820   -3.827010
  C     -3.701100  -11.950040   -3.786020
  C     -3.083770  -12.621100   -2.750340
  C     -2.227840  -11.801460   -1.988410
  C     -1.431280  -12.292810   -0.820720
  C     -1.985850  -13.633090   -0.318980
  C     -1.077140  -14.197960    0.652320
  N     -0.330770  -14.630720    1.401200
  C     -2.162340  -14.591590   -1.516410
  C     -2.507240  -15.918430   -1.058810
  N     -2.818380  -16.957040   -0.699440
  C     -3.274320  -14.073680   -2.441790
  C     -4.631260  -12.417750   -4.763470
  N     -4.934280  -11.664300   -5.862200
  C     -5.846000  -12.313800   -6.640100
  C     -6.143510  -13.516050   -6.020010
  C     -5.386730  -13.581890   -4.848260
  C     -6.327990  -11.771320   -7.835020
  C     -6.735560  -11.289950   -8.867380
  C     -7.202650  -10.731990  -10.069000
  C     -6.589100  -10.960720  -11.324850
  C     -7.216550  -10.305970  -12.342440
  S     -6.730870  -10.355350  -14.020230
  C     -7.993320   -9.298280  -14.782440
  S     -8.583840   -9.389450  -11.781610
  C     -8.303570   -9.897450  -10.140610
  C     -9.137230   -9.474300   -9.055350
  C    -10.186840   -8.662760   -9.167840
  H      0.279180   -1.325200   -2.355720
  H      1.022340    1.158560   -2.366600
  H      5.036900    2.746320    0.795810
  H      5.195740    1.090010    0.156040
  H      4.050610    1.430390    1.484450
  H      2.369800   -3.480360    0.198740
  H      0.162070   -3.625080   -1.916000
  H     -0.745300   -5.907940   -2.228600
  H      1.274740   -8.309780    0.552320
  H      2.186460   -5.812390    0.769780
  H     -1.446350  -11.550370   -0.018230
  H     -0.383760  -12.420600   -1.118610
  H     -2.958930  -13.481150    0.164930
  H     -1.214260  -14.651570   -2.065770
  H     -4.245370  -14.222250   -1.955350
  H     -3.276800  -14.653950   -3.367850
  H     -4.535320  -10.763400   -6.070930
  H     -6.831760  -14.254120   -6.380760
  H     -5.415570  -14.381660   -4.137430
  H     -5.723970  -11.582630  -11.463620
  H     -7.767960   -9.271780  -15.843580
  H     -7.935290   -8.299210  -14.359800
  H     -8.976920   -9.728520  -14.616630
  H     -8.848340   -9.875960   -8.091830
  H    -10.487490   -8.258850  -10.121120
  H    -10.777270   -8.381870   -8.314450

 Total Charge           Charge          ....    0
 Multiplicity           Mult            ....    1
 Number of Electrons    NEL             ....  350
 Basis Dimension        Dim             ....  780

ORBITAL ENERGIES
----------------

  NO   OCC          E(Eh)            E(eV)
   0   2.0000     -88.964741     -2420.8537
   1   2.0000     -88.960168     -2420.7292
   2   2.0000     -88.955133     -2420.5922
   3   2.0000     -88.936073     -2420.0736
   4   2.0000     -88.932999     -2419.9899
   5   2.0000     -14.466070      -393.6418
   6   2.0000     -14.462868      -393.5546
   7   2.0000     -14.405198      -391.9854
   8   2.0000     -14.404771      -391.9737
   9   2.0000     -10.334638      -281.2198
  10   2.0000     -10.334314      -281.2110
  11   2.0000     -10.319887      -280.8184
  12   2.0000     -10.317175      -280.7446
  13   2.0000     -10.314638      -280.6756
  14   2.0000     -10.313862      -280.6544
  15   2.0000     -10.313111      -280.6340
  16   2.0000     -10.312837      -280.6266
  17   2.0000     -10.310117      -280.5525
  18   2.0000     -10.303397      -280.3697
  19   2.0000     -10.302942      -280.3573
  20   2.0000     -10.302202      -280.3372
  21   2.0000     -10.300996      -280.3044
  22   2.0000     -10.300174      -280.2820
  23   2.0000     -10.299862      -280.2735
  24   2.0000     -10.298587      -280.2388
  25   2.0000     -10.298523      -280.2371
  26   2.0000     -10.293358      -280.0965
  27   2.0000     -10.292991      -280.0865
  28   2.0000     -10.290579      -280.0209
  29   2.0000     -10.289004      -279.9780
  30   2.0000     -10.282312      -279.7959
  31   2.0000     -10.280433      -279.7448
  32   2.0000     -10.279145      -279.7097
  33   2.0000     -10.277777      -279.6725
  34   2.0000     -10.277702      -279.6705
  35   2.0000     -10.273155      -279.5468
  36   2.0000     -10.271020      -279.4887
  37   2.0000     -10.270604      -279.4773
  38   2.0000     -10.270058      -279.4625
  39   2.0000     -10.266705      -279.3713
  40   2.0000     -10.264037      -279.2986
  41   2.0000     -10.263549      -279.2854
  42   2.0000     -10.261744      -279.2362
  43   2.0000     -10.261368      -279.2260
  44   2.0000     -10.255097      -279.0554
  45   2.0000      -8.060160      -219.3281
  46   2.0000      -8.055444      -219.1998
  47   2.0000      -8.050579      -219.0674
  48   2.0000      -8.031731      -218.5545
  49   2.0000      -8.028621      -218.4699
  50   2.0000      -6.029566      -164.0728
  51   2.0000      -6.025534      -163.9631
  52   2.0000      -6.024909      -163.9461
  53   2.0000      -6.021953      -163.8657
  54   2.0000      -6.020667      -163.8307
  55   2.0000      -6.020060      -163.8142
  56   2.0000      -6.017363      -163.7408
  57   2.0000      -6.015784      -163.6978
  58   2.0000      -6.012521      -163.6090
  59   2.0000      -6.002224      -163.3288
  60   2.0000      -5.999097      -163.2437
  61   2.0000      -5.998098      -163.2166
  62   2.0000      -5.995012      -163.1326
  63   2.0000      -5.991263      -163.0305
  64   2.0000      -5.988180      -162.9467
  65   2.0000      -1.086881       -29.5755
  66   2.0000      -1.080303       -29.3965
  67   2.0000      -1.010443       -27.4955
  68   2.0000      -0.993616       -27.0377
  69   2.0000      -0.990473       -26.9521
  70   2.0000      -0.987980       -26.8843
  71   2.0000      -0.982337       -26.7308
  72   2.0000      -0.950180       -25.8557
  73   2.0000      -0.910269       -24.7697
  74   2.0000      -0.909208       -24.7408
  75   2.0000      -0.902724       -24.5644
  76   2.0000      -0.887736       -24.1565
  77   2.0000      -0.880371       -23.9561
  78   2.0000      -0.875087       -23.8123
  79   2.0000      -0.872473       -23.7412
  80   2.0000      -0.868653       -23.6372
  81   2.0000      -0.865395       -23.5486
  82   2.0000      -0.857740       -23.3403
  83   2.0000      -0.850562       -23.1450
  84   2.0000      -0.834861       -22.7177
  85   2.0000      -0.824530       -22.4366
  86   2.0000      -0.812254       -22.1025
  87   2.0000      -0.804908       -21.9027
  88   2.0000      -0.790316       -21.5056
  89   2.0000      -0.777614       -21.1599
  90   2.0000      -0.754759       -20.5380
  91   2.0000      -0.747280       -20.3345
  92   2.0000      -0.741301       -20.1718
  93   2.0000      -0.735271       -20.0077
  94   2.0000      -0.717508       -19.5244
  95   2.0000      -0.700427       -19.0596
  96   2.0000      -0.687825       -18.7167
  97   2.0000      -0.685160       -18.6442
  98   2.0000      -0.682743       -18.5784
  99   2.0000      -0.673386       -18.3238
 100   2.0000      -0.669594       -18.2206
 101   2.0000      -0.655029       -17.8242
 102   2.0000      -0.648610       -17.6496
 103   2.0000      -0.636581       -17.3222
 104   2.0000      -0.636168       -17.3110
 105   2.0000      -0.627245       -17.0682
 106   2.0000      -0.620857       -16.8944
 107   2.0000      -0.617953       -16.8154
 108   2.0000      -0.592250       -16.1159
 109   2.0000      -0.588067       -16.0021
 110   2.0000      -0.585994       -15.9457
 111   2.0000      -0.580621       -15.7995
 112   2.0000      -0.570102       -15.5133
 113   2.0000      -0.558072       -15.1859
 114   2.0000      -0.542356       -14.7582
 115   2.0000      -0.536546       -14.6002
 116   2.0000      -0.535321       -14.5668
 117   2.0000      -0.533238       -14.5101
 118   2.0000      -0.530267       -14.4293
 119   2.0000      -0.527295       -14.3484
 120   2.0000      -0.526430       -14.3249
 121   2.0000      -0.525157       -14.2902
 122   2.0000      -0.521869       -14.2008
 123   2.0000      -0.519048       -14.1240
 124   2.0000      -0.517790       -14.0898
 125   2.0000      -0.514199       -13.9921
 126   2.0000      -0.511686       -13.9237
 127   2.0000      -0.509814       -13.8727
 128   2.0000      -0.507533       -13.8107
 129   2.0000      -0.503068       -13.6892
 130   2.0000      -0.487829       -13.2745
 131   2.0000      -0.483197       -13.1485
 132   2.0000      -0.482329       -13.1248
 133   2.0000      -0.481165       -13.0932
 134   2.0000      -0.478938       -13.0326
 135   2.0000      -0.475203       -12.9309
 136   2.0000      -0.473401       -12.8819
 137   2.0000      -0.472498       -12.8573
 138   2.0000      -0.465634       -12.6706
 139   2.0000      -0.464141       -12.6299
 140   2.0000      -0.463502       -12.6125
 141   2.0000      -0.457430       -12.4473
 142   2.0000      -0.456250       -12.4152
 143   2.0000      -0.454788       -12.3754
 144   2.0000      -0.452910       -12.3243
 145   2.0000      -0.437110       -11.8944
 146   2.0000      -0.437058       -11.8930
 147   2.0000      -0.430758       -11.7215
 148   2.0000      -0.424101       -11.5404
 149   2.0000      -0.418072       -11.3763
 150   2.0000      -0.415994       -11.3198
 151   2.0000      -0.415679       -11.3112
 152   2.0000      -0.415575       -11.3084
 153   2.0000      -0.401637       -10.9291
 154   2.0000      -0.400927       -10.9098
 155   2.0000      -0.399240       -10.8639
 156   2.0000      -0.397175       -10.8077
 157   2.0000      -0.396102       -10.7785
 158   2.0000      -0.393327       -10.7030
 159   2.0000      -0.392937       -10.6924
 160   2.0000      -0.382498       -10.4083
 161   2.0000      -0.377391       -10.2693
 162   2.0000      -0.355121        -9.6633
 163   2.0000      -0.346586        -9.4311
 164   2.0000      -0.332761        -9.0549
 165   2.0000      -0.328924        -8.9505
 166   2.0000      -0.328313        -8.9338
 167   2.0000      -0.322483        -8.7752
 168   2.0000      -0.321646        -8.7524
 169   2.0000      -0.317809        -8.6480
 170   2.0000      -0.303405        -8.2561
 171   2.0000      -0.279436        -7.6038
 172   2.0000      -0.252295        -6.8653
 173   2.0000      -0.249514        -6.7896
 174   2.0000      -0.219043        -5.9605
 175   0.0000      -0.043622        -1.1870
 176   0.0000      -0.019966        -0.5433
 177   0.0000      -0.015478        -0.4212
 178   0.0000       0.025795         0.7019
 179   0.0000       0.038686         1.0527

MULLIKEN ATOMIC CHARGES
-----------------------
   0 C :    0.008529
   1 C :    0.035665
   2 C :   -0.140178
   3 S :    0.001786
   4 C :   -0.097138
   5 S :    0.096274
   6 C :   -0.092546
   7 C :    0.060583
   8 C :    0.007949
   9 C :    0.095232
  10 N :   -0.046393
  11 C :   -0.012545
  12 C :   -0.007669
  13 C :   -0.052999
  14 C :    0.049758
  15 C :   -0.089783
  16 C :   -0.163442
  17 S :    0.123792
  18 C :   -0.087037
  19 C :   -0.096661
  20 C :   -0.056717
  21 C :    0.236203
  22 C :   -0.123976
  23 C :   -0.249314
  24 N :    0.158969
  25 C :   -0.092226
  26 C :   -0.260739
  27 N :    0.161951
  28 C :    0.188202
  29 C :    0.066327
  30 N :   -0.059361
  31 C :    0.000401
  32 C :   -0.001711
  33 C :   -0.075973
  34 C :    0.059647
  35 C :   -0.093604
  36 C :    0.014952
  37 C :    0.038276
  38 C :   -0.132990
  39 S :    0.004286
  40 C :   -0.097752
  41 S :    0.093532
  42 C :   -0.098963
  43 C :    0.011676
  44 C :   -0.031064
  45 H :   -0.021745
  46 H :   -0.017023
  47 H :    0.066694
  48 H :    0.071595
  49 H :    0.071151
  50 H :   -0.021038
  51 H :   -0.035670
  52 H :    0.119590
  53 H :   -0.027678
  54 H :   -0.025876
  55 H :    0.040278
  56 H :    0.030403
  57 H :    0.049044
  58 H :    0.048385
  59 H :    0.035262
  60 H :    0.042821
  61 H :    0.126039
  62 H :   -0.025962
  63 H :   -0.022935
  64 H :   -0.015353
  65 H :    0.068599
  66 H :    0.071498
  67 H :    0.072422
  68 H :    0.004990
  69 H :    0.016358
  70 H :    0.024946
Sum of atomic charges:   -0.0000000

LOEWDIN ATOMIC CHARGES
----------------------
   0 C :   -0.051800
   1 C :   -0.094703
   2 C :   -0.320489
   3 S :    0.292194
   4 C :   -0.161404
   5 S :    0.415436
   6 C :   -0.185116
   7 C :   -0.034838
   8 C :   -0.043238
   9 C :   -0.006961
  10 N :    0.101359
  11 C :   -0.045485
  12 C :   -0.038831
  13 C :   -0.068294
  14 C :   -0.033686
  15 C :   -0.072579
  16 C :   -0.190584
  17 S :    0.425036
  18 C :   -0.167513
  19 C :   -0.070337
  20 C :   -0.054977
  21 C :   -0.000512
  22 C :   -0.033754
  23 C :   -0.036558
  24 N :   -0.048115
  25 C :   -0.032366
  26 C :   -0.037151
  27 N :   -0.047803
  28 C :   -0.005058
  29 C :   -0.030590
  30 N :    0.097867
  31 C :   -0.031801
  32 C :   -0.044163
  33 C :   -0.070176
  34 C :   -0.056008
  35 C :   -0.026599
  36 C :   -0.073869
  37 C :   -0.079852
  38 C :   -0.311310
  39 S :    0.295054
  40 C :   -0.161717
  41 S :    0.426022
  42 C :   -0.165523
  43 C :   -0.033968
  44 C :   -0.054209
  45 H :    0.026249
  46 H :    0.028668
  47 H :    0.035395
  48 H :    0.024658
  49 H :    0.023956
  50 H :    0.027495
  51 H :    0.024008
  52 H :    0.091309
  53 H :    0.028820
  54 H :    0.023615
  55 H :    0.047215
  56 H :    0.044978
  57 H :    0.058488
  58 H :    0.058877
  59 H :    0.041446
  60 H :    0.044135
  61 H :    0.083562
  62 H :    0.030552
  63 H :    0.024686
  64 H :    0.033042
  65 H :    0.036196
  66 H :    0.024345
  67 H :    0.024893
  68 H :    0.040067
  69 H :    0.015571
  70 H :    0.026743

  Mayer bond orders larger than 0.100000
B(  0-C ,  1-C ) :   1.2844 B(  0-C ,  6-C ) :   1.5247 B(  0-C , 45-H ) :   0.9923
B(  1-C ,  2-C ) :   1.5498 B(  1-C , 46-H ) :   0.9931 B(  2-C ,  3-S ) :   1.0202
B(  2-C ,  5-S ) :   1.1224 B(  3-S ,  4-C ) :   1.0160 B(  4-C , 47-H ) :   0.9732
B(  4-C , 48-H ) :   0.9653 B(  4-C , 49-H ) :   0.9649 B(  5-S ,  6-C ) :   1.0954
B(  6-C ,  7-C ) :   1.1153 B(  7-C ,  8-C ) :   1.7266 B(  7-C , 50-H ) :   0.9638
B(  8-C ,  9-C ) :   1.0924 B(  8-C , 51-H ) :   0.9578 B(  9-C , 10-N ) :   1.2094
B(  9-C , 11-C ) :   0.1196 B(  9-C , 13-C ) :   1.4121 B( 10-N , 11-C ) :   1.2281
B( 10-N , 52-H ) :   0.9375 B( 11-C , 12-C ) :   1.4345 B( 11-C , 14-C ) :   0.8185
B( 12-C , 13-C ) :   1.3301 B( 12-C , 53-H ) :   1.0168 B( 13-C , 54-H ) :   1.0028
B( 14-C , 15-C ) :   2.2583 B( 15-C , 16-C ) :   0.9606 B( 16-C , 17-S ) :   1.0906
B( 16-C , 18-C ) :   0.1178 B( 16-C , 20-C ) :   1.5333 B( 17-S , 18-C ) :   1.1031
B( 18-C , 19-C ) :   1.5793 B( 18-C , 29-C ) :   1.0446 B( 19-C , 20-C ) :   1.2942
B( 19-C , 28-C ) :   1.0597 B( 20-C , 21-C ) :   1.0655 B( 21-C , 22-C ) :   1.0931
B( 21-C , 55-H ) :   0.9023 B( 21-C , 56-H ) :   0.8822 B( 22-C , 23-C ) :   1.0842
B( 22-C , 25-C ) :   1.0584 B( 22-C , 57-H ) :   0.8584 B( 23-C , 24-N ) :   3.1244
B( 25-C , 26-C ) :   1.0844 B( 25-C , 28-C ) :   1.0878 B( 25-C , 58-H ) :   0.8555
B( 26-C , 27-N ) :   3.1251 B( 28-C , 59-H ) :   0.8871 B( 28-C , 60-H ) :   0.9062
B( 29-C , 30-N ) :   1.2342 B( 29-C , 31-C ) :   0.1361 B( 29-C , 33-C ) :   1.4352
B( 30-N , 31-C ) :   1.2360 B( 30-N , 61-H ) :   0.9290 B( 31-C , 32-C ) :   1.4719
B( 31-C , 34-C ) :   0.7674 B( 32-C , 33-C ) :   1.2888 B( 32-C , 62-H ) :   1.0156
B( 33-C , 63-H ) :   1.0073 B( 34-C , 35-C ) :   2.3108 B( 35-C , 36-C ) :   0.8770
B( 36-C , 37-C ) :   1.2554 B( 36-C , 42-C ) :   1.5004 B( 37-C , 38-C ) :   1.5575
B( 37-C , 64-H ) :   1.0009 B( 38-C , 39-S ) :   1.0212 B( 38-C , 41-S ) :   1.1144
B( 39-S , 40-C ) :   1.0146 B( 40-C , 65-H ) :   0.9728 B( 40-C , 66-H ) :   0.9651
B( 40-C , 67-H ) :   0.9652 B( 41-S , 42-C ) :   1.0831 B( 42-C , 43-C ) :   1.1494
B( 43-C , 44-C ) :   1.9077 B( 43-C , 68-H ) :   0.9542 B( 44-C , 69-H ) :   0.9571
B( 44-C , 70-H ) :   0.9490

-----------------------------------------------------------------------------
         ABSORPTION SPECTRUM VIA TRANSITION ELECTRIC DIPOLE MOMENTS
-----------------------------------------------------------------------------
State   Energy  Wavelength   fosc         T2         TX        TY        TZ
        (cm-1)    (nm)                  (au**2)     (au)      (au)      (au)
-----------------------------------------------------------------------------
   0   23138.4    432.2   2.066542896  29.40262   2.77861   4.26917   1.85907
   1   30077.3    332.5   0.628930547   6.88397  -0.70019   1.97042  -1.58466
   2   31132.6    321.2   0.088697244   0.93793  -0.57426   0.05540  -0.77787
   3   31221.0    320.3   0.034236282   0.36101  -0.39234   0.01174  -0.45491
   4   34049.7    293.7   0.066479896   0.64277   0.50652  -0.29633  -0.54625
   5   34292.9    291.6   0.429478342   4.12299  -1.29076   0.72251   1.39102
   6   36053.2    277.4   0.001106051   0.01010   0.05404  -0.07423   0.04086
   7   36122.7    276.8   0.074388671   0.67796   0.44415   0.13295   0.68045
   8   37944.7    263.5   0.000151901   0.00132  -0.01632   0.00744   0.03157
   9   38920.3    256.9   0.208157621   1.76073   0.71336  -0.10571   1.11385

FINAL SINGLE POINT ENERGY     -3594.611997403098

DIPOLE MOMENT
-------------
                                X             Y             Z
Electronic contribution:      0.60795      -8.98997      -1.56252
Nuclear contribution   :     -1.07676      12.22771      -0.36666
                        -----------------------------------------
Total Dipole Moment    :     -0.46881       3.23774      -1.92918
                        -----------------------------------------
Magnitude (a.u.)       :      3.79796
Magnitude (Debye)      :      9.65364

Rotational constants in cm-1:     0.001350     0.000536     0.000394
Rotational constants in MHz :    40.484086    16.062628    11.805737

                             ****ORCA TERMINATED NORMALLY****
TOTAL RUN TIME: 0 days 0 hours 4 minutes 4 seconds 562 msec
