                         Program Version 4.2.0 -  RELEASE  -
|  1> # ORCA input file
|  2> # SCF done       -160.140629293052          0.000662766337
|  3> ! CAM-B3LYP def2-SVP def2/J RIJCOSX Grid4 TightSCF
|  4> %maxcore 5000
|  5> %tddft
|  6>     Mode sTDDFT
|  7>     Ethresh 5.0
|  8>     maxcore 5000
|  9> end
| 10>
| 11> %pal
| 12>   nprocs 6
| 13>   end
| 14> * xyz 0 1
| 15>    C       -0.10032        -1.84118        -7.86294
| 16>    C        0.12094        -0.46446        -7.78625
| 17>    C        0.23256        -0.01444        -6.49273
| 18>    S        0.50947         1.59578        -5.89026
| 19>    C        0.65276         2.54520        -7.43167
| 20>    S        0.06159        -1.30144        -5.34830
| 21>    C       -0.16292        -2.47036        -6.63477
| 22>    C       -0.36524        -3.83189        -6.30992
| 23>    C       -0.53832        -4.83383        -7.21638
| 24>    C       -0.73170        -6.19374        -6.88640
| 25>    C       -0.79724        -6.79591        -5.64166
| 26>    C       -0.99631        -8.18668        -5.80648
| 27>    C       -1.04971        -8.40141        -7.25641
| 28>    C       -0.89668        -7.23641        -7.90218
| 29>    F       -1.22907        -9.60401        -7.82257
| 30>    C       -1.11728        -9.16173        -4.83121
| 31>    C       -1.30578       -10.55345        -4.99512
| 32>    C       -1.37473       -11.16043        -3.74732
| 33>    C       -1.22562       -10.11699        -2.73281
| 34>    C       -1.07354        -8.95252        -3.38307
| 35>    F       -0.90466        -7.75096        -2.81272
| 36>    C       -1.54843       -12.53607        -3.52556
| 37>    C       -1.62674       -13.12483        -2.29074
| 38>    C       -1.78130       -14.49069        -2.02468
| 39>    S       -1.88289       -14.99423        -0.35312
| 40>    C       -2.03843       -16.68899        -0.74517
| 41>    C       -2.01063       -16.82960        -2.12998
| 42>    C       -1.86925       -15.62089        -2.86020
| 43>    C       -1.84391       -15.85942        -4.25135
| 44>    C       -1.96297       -17.18667        -4.55246
| 45>    C       -1.97220       -17.81354        -5.87407
| 46>    O       -2.07940       -18.99915        -6.06729
| 47>    O       -1.84450       -16.90321        -6.85487
| 48>    C       -1.83689       -17.42473        -8.17573
| 49>    S       -2.11257       -18.21804        -3.15366
| 50>    C       -2.16094       -17.66816         0.25345
| 51>    C       -2.27450       -19.03811         0.08521
| 52>    C       -2.37339       -19.64934         1.36047
| 53>    C       -2.31314       -18.54781         2.32372
| 54>    C       -2.18569       -17.37457         1.68431
| 55>    F       -2.37578       -18.71806         3.65062
| 56>    C       -2.49945       -20.99245         1.65809
| 57>    C       -2.61048       -21.60841         2.93206
| 58>    C       -2.72398       -22.97361         2.76705
| 59>    C       -2.67833       -23.26423         1.33191
| 60>    C       -2.54894       -22.09352         0.69071
| 61>    F       -2.47057       -21.91872        -0.63503
| 62>    C       -2.86126       -23.99342         3.74558
| 63>    C       -2.98682       -23.77352         5.07646
| 64>    C       -3.13746       -24.77874         6.08798
| 65>    C       -3.84699       -24.50660         7.28904
| 66>    C       -3.96152       -25.58444         8.11088
| 67>    S       -4.80695       -25.60985         9.63843
| 68>    C       -4.51141       -27.31676        10.17755
| 69>    S       -3.16333       -26.98091         7.44896
| 70>    C       -2.67452       -26.08893         6.03569
| 71>    C       -1.79823       -26.69748         5.07853
| 72>    C       -1.56085       -28.00588         4.99005
| 73>    H       -0.21236        -2.36083        -8.79688
| 74>    H        0.19422         0.16899        -8.65088
| 75>    H        0.84217         3.57063        -7.13042
| 76>    H       -0.27824         2.48734        -7.98742
| 77>    H        1.48652         2.17001        -8.01740
| 78>    H       -0.37442        -4.07112        -5.25630
| 79>    H       -0.52530        -4.59586        -8.27179
| 80>    H       -0.71204        -6.30306        -4.69422
| 81>    H       -0.89110        -7.07001        -8.96197
| 82>    H       -1.38278       -11.06017        -5.93720
| 83>    H       -1.23358       -10.26224        -1.67090
| 84>    H       -1.62334       -13.14861        -4.41121
| 85>    H       -1.56670       -12.49325        -1.41498
| 86>    H       -1.74237       -15.11477        -5.01729
| 87>    H       -1.76507       -16.56675        -8.83892
| 88>    H       -2.75396       -17.98540        -8.36772
| 89>    H       -0.98304       -18.09106        -8.31492
| 90>    H       -2.28666       -19.55880        -0.85117
| 91>    H       -2.11459       -16.39330         2.11179
| 92>    H       -2.60395       -21.07889         3.86353
| 93>    H       -2.74237       -24.24432         0.90033
| 94>    H       -2.90515       -25.00612         3.36784
| 95>    H       -3.04942       -22.75397         5.43210
| 96>    H       -4.27942       -23.54941         7.51777
| 97>    H       -5.00661       -27.42305        11.13725
| 98>    H       -3.44398       -27.48599        10.28341
| 99>    H       -4.93930       -28.00531         9.45452
|100>    H       -1.29288       -26.00832         4.41510
|101>    H       -2.05526       -28.71436         5.63471
|102>    H       -0.87185       -28.40627         4.26831
|103> *
|104>
|105>                          ****END OF INPUT****

CARTESIAN COORDINATES (ANGSTROEM)
---------------------------------
  C     -0.100320   -1.841180   -7.862940
  C      0.120940   -0.464460   -7.786250
  C      0.232560   -0.014440   -6.492730
  S      0.509470    1.595780   -5.890260
  C      0.652760    2.545200   -7.431670
  S      0.061590   -1.301440   -5.348300
  C     -0.162920   -2.470360   -6.634770
  C     -0.365240   -3.831890   -6.309920
  C     -0.538320   -4.833830   -7.216380
  C     -0.731700   -6.193740   -6.886400
  C     -0.797240   -6.795910   -5.641660
  C     -0.996310   -8.186680   -5.806480
  C     -1.049710   -8.401410   -7.256410
  C     -0.896680   -7.236410   -7.902180
  F     -1.229070   -9.604010   -7.822570
  C     -1.117280   -9.161730   -4.831210
  C     -1.305780  -10.553450   -4.995120
  C     -1.374730  -11.160430   -3.747320
  C     -1.225620  -10.116990   -2.732810
  C     -1.073540   -8.952520   -3.383070
  F     -0.904660   -7.750960   -2.812720
  C     -1.548430  -12.536070   -3.525560
  C     -1.626740  -13.124830   -2.290740
  C     -1.781300  -14.490690   -2.024680
  S     -1.882890  -14.994230   -0.353120
  C     -2.038430  -16.688990   -0.745170
  C     -2.010630  -16.829600   -2.129980
  C     -1.869250  -15.620890   -2.860200
  C     -1.843910  -15.859420   -4.251350
  C     -1.962970  -17.186670   -4.552460
  C     -1.972200  -17.813540   -5.874070
  O     -2.079400  -18.999150   -6.067290
  O     -1.844500  -16.903210   -6.854870
  C     -1.836890  -17.424730   -8.175730
  S     -2.112570  -18.218040   -3.153660
  C     -2.160940  -17.668160    0.253450
  C     -2.274500  -19.038110    0.085210
  C     -2.373390  -19.649340    1.360470
  C     -2.313140  -18.547810    2.323720
  C     -2.185690  -17.374570    1.684310
  F     -2.375780  -18.718060    3.650620
  C     -2.499450  -20.992450    1.658090
  C     -2.610480  -21.608410    2.932060
  C     -2.723980  -22.973610    2.767050
  C     -2.678330  -23.264230    1.331910
  C     -2.548940  -22.093520    0.690710
  F     -2.470570  -21.918720   -0.635030
  C     -2.861260  -23.993420    3.745580
  C     -2.986820  -23.773520    5.076460
  C     -3.137460  -24.778740    6.087980
  C     -3.846990  -24.506600    7.289040
  C     -3.961520  -25.584440    8.110880
  S     -4.806950  -25.609850    9.638430
  C     -4.511410  -27.316760   10.177550
  S     -3.163330  -26.980910    7.448960
  C     -2.674520  -26.088930    6.035690
  C     -1.798230  -26.697480    5.078530
  C     -1.560850  -28.005880    4.990050
  H     -0.212360   -2.360830   -8.796880
  H      0.194220    0.168990   -8.650880
  H      0.842170    3.570630   -7.130420
  H     -0.278240    2.487340   -7.987420
  H      1.486520    2.170010   -8.017400
  H     -0.374420   -4.071120   -5.256300
  H     -0.525300   -4.595860   -8.271790
  H     -0.712040   -6.303060   -4.694220
  H     -0.891100   -7.070010   -8.961970
  H     -1.382780  -11.060170   -5.937200
  H     -1.233580  -10.262240   -1.670900
  H     -1.623340  -13.148610   -4.411210
  H     -1.566700  -12.493250   -1.414980
  H     -1.742370  -15.114770   -5.017290
  H     -1.765070  -16.566750   -8.838920
  H     -2.753960  -17.985400   -8.367720
  H     -0.983040  -18.091060   -8.314920
  H     -2.286660  -19.558800   -0.851170
  H     -2.114590  -16.393300    2.111790
  H     -2.603950  -21.078890    3.863530
  H     -2.742370  -24.244320    0.900330
  H     -2.905150  -25.006120    3.367840
  H     -3.049420  -22.753970    5.432100
  H     -4.279420  -23.549410    7.517770
  H     -5.006610  -27.423050   11.137250
  H     -3.443980  -27.485990   10.283410
  H     -4.939300  -28.005310    9.454520
  H     -1.292880  -26.008320    4.415100
  H     -2.055260  -28.714360    5.634710
  H     -0.871850  -28.406270    4.268310

 Total Charge           Charge          ....    0
 Multiplicity           Mult            ....    1
 Number of Electrons    NEL             ....  454
 Basis Dimension        Dim             ....  986

ORBITAL ENERGIES
----------------

  NO   OCC          E(Eh)            E(eV)
   0   2.0000     -88.966729     -2420.9078
   1   2.0000     -88.959279     -2420.7050
   2   2.0000     -88.958163     -2420.6747
   3   2.0000     -88.952603     -2420.5234
   4   2.0000     -88.940235     -2420.1868
   5   2.0000     -88.931072     -2419.9375
   6   2.0000     -24.782756      -674.3731
   7   2.0000     -24.782381      -674.3629
   8   2.0000     -24.781640      -674.3427
   9   2.0000     -24.776890      -674.2134
  10   2.0000     -19.258592      -524.0529
  11   2.0000     -19.202718      -522.5325
  12   2.0000     -10.402136      -283.0565
  13   2.0000     -10.348810      -281.6054
  14   2.0000     -10.347151      -281.5603
  15   2.0000     -10.347117      -281.5594
  16   2.0000     -10.341640      -281.4103
  17   2.0000     -10.325055      -280.9590
  18   2.0000     -10.320297      -280.8296
  19   2.0000     -10.317309      -280.7482
  20   2.0000     -10.313604      -280.6474
  21   2.0000     -10.311717      -280.5961
  22   2.0000     -10.307592      -280.4838
  23   2.0000     -10.306459      -280.4530
  24   2.0000     -10.305150      -280.4174
  25   2.0000     -10.300406      -280.2883
  26   2.0000     -10.296550      -280.1834
  27   2.0000     -10.295008      -280.1414
  28   2.0000     -10.293341      -280.0960
  29   2.0000     -10.292175      -280.0643
  30   2.0000     -10.291898      -280.0568
  31   2.0000     -10.291719      -280.0519
  32   2.0000     -10.291668      -280.0505
  33   2.0000     -10.290783      -280.0264
  34   2.0000     -10.290064      -280.0069
  35   2.0000     -10.289618      -279.9947
  36   2.0000     -10.288687      -279.9694
  37   2.0000     -10.283744      -279.8349
  38   2.0000     -10.281878      -279.7841
  39   2.0000     -10.281012      -279.7606
  40   2.0000     -10.279434      -279.7176
  41   2.0000     -10.277491      -279.6648
  42   2.0000     -10.277038      -279.6524
  43   2.0000     -10.276788      -279.6456
  44   2.0000     -10.276112      -279.6272
  45   2.0000     -10.275090      -279.5994
  46   2.0000     -10.273997      -279.5697
  47   2.0000     -10.270678      -279.4794
  48   2.0000     -10.267598      -279.3955
  49   2.0000     -10.264857      -279.3210
  50   2.0000     -10.264273      -279.3051
  51   2.0000     -10.263102      -279.2732
  52   2.0000     -10.259468      -279.1743
  53   2.0000     -10.259142      -279.1654
  54   2.0000     -10.257112      -279.1102
  55   2.0000     -10.255173      -279.0575
  56   2.0000     -10.249126      -278.8929
  57   2.0000     -10.248241      -278.8688
  58   2.0000      -8.061707      -219.3702
  59   2.0000      -8.055209      -219.1934
  60   2.0000      -8.052823      -219.1284
  61   2.0000      -8.047955      -218.9960
  62   2.0000      -8.035952      -218.6694
  63   2.0000      -8.026798      -218.4203
  64   2.0000      -6.030918      -164.1096
  65   2.0000      -6.026857      -163.9991
  66   2.0000      -6.024608      -163.9379
  67   2.0000      -6.023980      -163.9208
  68   2.0000      -6.022513      -163.8809
  69   2.0000      -6.020483      -163.8257
  70   2.0000      -6.018205      -163.7637
  71   2.0000      -6.017482      -163.7440
  72   2.0000      -6.017044      -163.7321
  73   2.0000      -6.014305      -163.6576
  74   2.0000      -6.013129      -163.6256
  75   2.0000      -6.009845      -163.5362
  76   2.0000      -6.006475      -163.4445
  77   2.0000      -6.002174      -163.3274
  78   2.0000      -5.997272      -163.1941
  79   2.0000      -5.995585      -163.1482
  80   2.0000      -5.993173      -163.0825
  81   2.0000      -5.986331      -162.8963
  82   2.0000      -1.294731       -35.2314
  83   2.0000      -1.293733       -35.2043
  84   2.0000      -1.293293       -35.1923
  85   2.0000      -1.288783       -35.0696
  86   2.0000      -1.189501       -32.3680
  87   2.0000      -1.096337       -29.8328
  88   2.0000      -1.011798       -27.5324
  89   2.0000      -0.989611       -26.9287
  90   2.0000      -0.983118       -26.7520
  91   2.0000      -0.979148       -26.6440
  92   2.0000      -0.977888       -26.6097
  93   2.0000      -0.961589       -26.1662
  94   2.0000      -0.960492       -26.1363
  95   2.0000      -0.949267       -25.8309
  96   2.0000      -0.912118       -24.8200
  97   2.0000      -0.907460       -24.6932
  98   2.0000      -0.902915       -24.5696
  99   2.0000      -0.884046       -24.0561
 100   2.0000      -0.882628       -24.0175
 101   2.0000      -0.865606       -23.5543
 102   2.0000      -0.862751       -23.4766
 103   2.0000      -0.850666       -23.1478
 104   2.0000      -0.840940       -22.8831
 105   2.0000      -0.838289       -22.8110
 106   2.0000      -0.834764       -22.7151
 107   2.0000      -0.820725       -22.3331
 108   2.0000      -0.816153       -22.2087
 109   2.0000      -0.812846       -22.1187
 110   2.0000      -0.799866       -21.7655
 111   2.0000      -0.798043       -21.7159
 112   2.0000      -0.794739       -21.6259
 113   2.0000      -0.785342       -21.3702
 114   2.0000      -0.778073       -21.1724
 115   2.0000      -0.767607       -20.8877
 116   2.0000      -0.756981       -20.5985
 117   2.0000      -0.741894       -20.1880
 118   2.0000      -0.733289       -19.9538
 119   2.0000      -0.729937       -19.8626
 120   2.0000      -0.715936       -19.4816
 121   2.0000      -0.709209       -19.2986
 122   2.0000      -0.701638       -19.0925
 123   2.0000      -0.698863       -19.0170
 124   2.0000      -0.675419       -18.3791
 125   2.0000      -0.665273       -18.1030
 126   2.0000      -0.662106       -18.0168
 127   2.0000      -0.655775       -17.8445
 128   2.0000      -0.652829       -17.7644
 129   2.0000      -0.647207       -17.6114
 130   2.0000      -0.640641       -17.4327
 131   2.0000      -0.636224       -17.3125
 132   2.0000      -0.633836       -17.2476
 133   2.0000      -0.629899       -17.1404
 134   2.0000      -0.629558       -17.1311
 135   2.0000      -0.628183       -17.0937
 136   2.0000      -0.615796       -16.7567
 137   2.0000      -0.615148       -16.7390
 138   2.0000      -0.612288       -16.6612
 139   2.0000      -0.598067       -16.2742
 140   2.0000      -0.596246       -16.2247
 141   2.0000      -0.589622       -16.0444
 142   2.0000      -0.585768       -15.9395
 143   2.0000      -0.575118       -15.6498
 144   2.0000      -0.570169       -15.5151
 145   2.0000      -0.569263       -15.4904
 146   2.0000      -0.566753       -15.4221
 147   2.0000      -0.558765       -15.2048
 148   2.0000      -0.552690       -15.0395
 149   2.0000      -0.552207       -15.0263
 150   2.0000      -0.551531       -15.0079
 151   2.0000      -0.546318       -14.8661
 152   2.0000      -0.545405       -14.8412
 153   2.0000      -0.542461       -14.7611
 154   2.0000      -0.542354       -14.7582
 155   2.0000      -0.541444       -14.7334
 156   2.0000      -0.535042       -14.5592
 157   2.0000      -0.530330       -14.4310
 158   2.0000      -0.528461       -14.3801
 159   2.0000      -0.527898       -14.3648
 160   2.0000      -0.527466       -14.3531
 161   2.0000      -0.524925       -14.2839
 162   2.0000      -0.520757       -14.1705
 163   2.0000      -0.517282       -14.0760
 164   2.0000      -0.514156       -13.9909
 165   2.0000      -0.512640       -13.9496
 166   2.0000      -0.510494       -13.8912
 167   2.0000      -0.506455       -13.7813
 168   2.0000      -0.501406       -13.6440
 169   2.0000      -0.496647       -13.5144
 170   2.0000      -0.495232       -13.4759
 171   2.0000      -0.492340       -13.3972
 172   2.0000      -0.491835       -13.3835
 173   2.0000      -0.490690       -13.3524
 174   2.0000      -0.482790       -13.1374
 175   2.0000      -0.482410       -13.1270
 176   2.0000      -0.481384       -13.0991
 177   2.0000      -0.473379       -12.8813
 178   2.0000      -0.472352       -12.8533
 179   2.0000      -0.468812       -12.7570
 180   2.0000      -0.465839       -12.6761
 181   2.0000      -0.464425       -12.6376
 182   2.0000      -0.461452       -12.5567
 183   2.0000      -0.460630       -12.5344
 184   2.0000      -0.459060       -12.4917
 185   2.0000      -0.455473       -12.3940
 186   2.0000      -0.453479       -12.3398
 187   2.0000      -0.450010       -12.2454
 188   2.0000      -0.446742       -12.1565
 189   2.0000      -0.446313       -12.1448
 190   2.0000      -0.445650       -12.1267
 191   2.0000      -0.441546       -12.0151
 192   2.0000      -0.438010       -11.9189
 193   2.0000      -0.434628       -11.8268
 194   2.0000      -0.431733       -11.7481
 195   2.0000      -0.431025       -11.7288
 196   2.0000      -0.428808       -11.6685
 197   2.0000      -0.423564       -11.5258
 198   2.0000      -0.421876       -11.4798
 199   2.0000      -0.420785       -11.4502
 200   2.0000      -0.413769       -11.2592
 201   2.0000      -0.406299       -11.0560
 202   2.0000      -0.405042       -11.0217
 203   2.0000      -0.404189       -10.9985
 204   2.0000      -0.402984       -10.9657
 205   2.0000      -0.401157       -10.9160
 206   2.0000      -0.392350       -10.6764
 207   2.0000      -0.390211       -10.6182
 208   2.0000      -0.385234       -10.4827
 209   2.0000      -0.376954       -10.2574
 210   2.0000      -0.371445       -10.1075
 211   2.0000      -0.356399        -9.6981
 212   2.0000      -0.355313        -9.6686
 213   2.0000      -0.337206        -9.1759
 214   2.0000      -0.327433        -8.9099
 215   2.0000      -0.324530        -8.8309
 216   2.0000      -0.321698        -8.7539
 217   2.0000      -0.312416        -8.5013
 218   2.0000      -0.306802        -8.3485
 219   2.0000      -0.299047        -8.1375
 220   2.0000      -0.291573        -7.9341
 221   2.0000      -0.282842        -7.6965
 222   2.0000      -0.276503        -7.5240
 223   2.0000      -0.262064        -7.1311
 224   2.0000      -0.247553        -6.7363
 225   2.0000      -0.236872        -6.4456
 226   2.0000      -0.213486        -5.8092
 227   0.0000      -0.109757        -2.9866
 228   0.0000      -0.085786        -2.3344
 229   0.0000      -0.043673        -1.1884
 230   0.0000      -0.013493        -0.3672
 231   0.0000      -0.011048        -0.3006

MULLIKEN ATOMIC CHARGES
-----------------------
   0 C :    0.029206
   1 C :    0.014146
   2 C :   -0.138229
   3 S :    0.011097
   4 C :   -0.093947
   5 S :    0.142607
   6 C :   -0.107853
   7 C :    0.093237
   8 C :   -0.018643
   9 C :    0.114419
  10 C :   -0.104621
  11 C :    0.016433
  12 C :    0.256968
  13 C :   -0.088714
  14 F :   -0.180709
  15 C :    0.012251
  16 C :   -0.091112
  17 C :    0.103861
  18 C :   -0.087298
  19 C :    0.253808
  20 F :   -0.178661
  21 C :    0.002799
  22 C :    0.055849
  23 C :   -0.096462
  24 S :    0.148974
  25 C :   -0.123541
  26 C :   -0.045087
  27 C :    0.130662
  28 C :   -0.007978
  29 C :   -0.143552
  30 C :    0.209188
  31 O :   -0.198099
  32 O :   -0.306590
  33 C :    0.191016
  34 S :    0.177841
  35 C :    0.096479
  36 C :   -0.115401
  37 C :    0.013675
  38 C :    0.258278
  39 C :   -0.102845
  40 F :   -0.177189
  41 C :    0.003421
  42 C :   -0.091684
  43 C :    0.094308
  44 C :   -0.083555
  45 C :    0.257489
  46 F :   -0.176706
  47 C :   -0.010090
  48 C :   -0.002305
  49 C :    0.120848
  50 C :    0.007250
  51 C :   -0.129132
  52 S :    0.001056
  53 C :   -0.096268
  54 S :    0.090647
  55 C :   -0.127138
  56 C :   -0.004071
  57 C :   -0.038625
  58 H :   -0.013716
  59 H :   -0.020526
  60 H :    0.068261
  61 H :    0.072251
  62 H :    0.072428
  63 H :   -0.010320
  64 H :   -0.027263
  65 H :   -0.022732
  66 H :   -0.022381
  67 H :   -0.018567
  68 H :   -0.019414
  69 H :   -0.040126
  70 H :   -0.022810
  71 H :    0.004713
  72 H :    0.035102
  73 H :    0.034781
  74 H :    0.034103
  75 H :   -0.012365
  76 H :   -0.013403
  77 H :   -0.022454
  78 H :   -0.021612
  79 H :   -0.010307
  80 H :   -0.004839
  81 H :   -0.020110
  82 H :    0.067023
  83 H :    0.071504
  84 H :    0.071304
  85 H :    0.007394
  86 H :    0.018440
  87 H :    0.023938
Sum of atomic charges:    0.0000000

LOEWDIN ATOMIC CHARGES
----------------------
   0 C :   -0.038432
   1 C :   -0.104413
   2 C :   -0.315846
   3 S :    0.295644
   4 C :   -0.148249
   5 S :    0.424546
   6 C :   -0.181314
   7 C :   -0.003640
   8 C :   -0.034179
   9 C :    0.005238
  10 C :   -0.077647
  11 C :    0.003856
  12 C :    0.081162
  13 C :   -0.062198
  14 F :   -0.056468
  15 C :   -0.013140
  16 C :   -0.054105
  17 C :   -0.008570
  18 C :   -0.065503
  19 C :    0.083526
  20 F :   -0.055792
  21 C :   -0.007718
  22 C :   -0.041860
  23 C :   -0.153644
  24 S :    0.463612
  25 C :   -0.184719
  26 C :   -0.173322
  27 C :   -0.074267
  28 C :   -0.016199
  29 C :   -0.200440
  30 C :    0.065136
  31 O :   -0.174580
  32 O :   -0.096255
  33 C :    0.082510
  34 S :    0.462269
  35 C :   -0.024155
  36 C :   -0.071116
  37 C :   -0.003747
  38 C :    0.085706
  39 C :   -0.069853
  40 F :   -0.052829
  41 C :    0.000945
  42 C :   -0.068536
  43 C :   -0.001509
  44 C :   -0.060981
  45 C :    0.078138
  46 F :   -0.053477
  47 C :   -0.027365
  48 C :    0.011333
  49 C :   -0.053984
  50 C :   -0.092018
  51 C :   -0.311286
  52 S :    0.293137
  53 C :   -0.161844
  54 S :    0.424468
  55 C :   -0.176305
  56 C :   -0.040885
  57 C :   -0.060068
  58 H :    0.029840
  59 H :    0.026894
  60 H :    0.036679
  61 H :    0.028492
  62 H :    0.028848
  63 H :    0.032118
  64 H :    0.026490
  65 H :    0.017839
  66 H :    0.027953
  67 H :    0.021652
  68 H :    0.027237
  69 H :    0.030842
  70 H :    0.028495
  71 H :    0.034944
  72 H :    0.026244
  73 H :    0.024309
  74 H :    0.024280
  75 H :    0.013062
  76 H :    0.025094
  77 H :    0.018223
  78 H :    0.028555
  79 H :    0.030679
  80 H :    0.032837
  81 H :    0.028191
  82 H :    0.035489
  83 H :    0.024703
  84 H :    0.024121
  85 H :    0.036334
  86 H :    0.015230
  87 H :    0.025561

  Mayer bond orders larger than 0.100000
B(  0-C ,  1-C ) :   1.2821 B(  0-C ,  6-C ) :   1.4949 B(  0-C , 58-H ) :   0.9905
B(  1-C ,  2-C ) :   1.5084 B(  1-C , 59-H ) :   0.9953 B(  2-C ,  3-S ) :   1.0239
B(  2-C ,  5-S ) :   1.1361 B(  3-S ,  4-C ) :   1.0246 B(  4-C , 60-H ) :   0.9713
B(  4-C , 61-H ) :   0.9662 B(  4-C , 62-H ) :   0.9661 B(  5-S ,  6-C ) :   1.1029
B(  6-C ,  7-C ) :   1.1458 B(  7-C ,  8-C ) :   1.6383 B(  7-C , 63-H ) :   0.9633
B(  8-C ,  9-C ) :   1.1532 B(  8-C , 64-H ) :   0.9752 B(  9-C , 10-C ) :   1.4996
B(  9-C , 13-C ) :   1.0071 B( 10-C , 11-C ) :   1.1766 B( 10-C , 65-H ) :   1.0100
B( 11-C , 12-C ) :   1.0131 B( 11-C , 15-C ) :   1.4090 B( 12-C , 13-C ) :   1.6578
B( 12-C , 14-F ) :   1.1199 B( 13-C , 66-H ) :   1.0215 B( 15-C , 16-C ) :   1.1540
B( 15-C , 19-C ) :   1.0296 B( 16-C , 17-C ) :   1.4569 B( 16-C , 67-H ) :   1.0217
B( 17-C , 18-C ) :   1.0211 B( 17-C , 21-C ) :   1.1957 B( 18-C , 19-C ) :   1.6613
B( 18-C , 68-H ) :   1.0122 B( 19-C , 20-F ) :   1.1218 B( 21-C , 22-C ) :   1.5502
B( 21-C , 69-H ) :   0.9778 B( 22-C , 23-C ) :   1.2003 B( 22-C , 70-H ) :   0.9516
B( 23-C , 24-S ) :   1.1323 B( 23-C , 25-C ) :   0.1005 B( 23-C , 27-C ) :   1.3069
B( 24-S , 25-C ) :   1.1177 B( 25-C , 26-C ) :   1.4459 B( 25-C , 35-C ) :   1.1817
B( 26-C , 27-C ) :   1.2718 B( 26-C , 34-S ) :   1.0799 B( 27-C , 28-C ) :   1.1458
B( 28-C , 29-C ) :   1.6070 B( 28-C , 71-H ) :   0.9985 B( 29-C , 30-C ) :   0.9626
B( 29-C , 34-S ) :   1.0753 B( 30-C , 31-O ) :   2.1420 B( 30-C , 32-O ) :   1.2294
B( 32-O , 33-C ) :   0.9208 B( 33-C , 72-H ) :   0.9808 B( 33-C , 73-H ) :   0.9755
B( 33-C , 74-H ) :   0.9769 B( 35-C , 36-C ) :   1.5008 B( 35-C , 39-C ) :   1.0123
B( 36-C , 37-C ) :   1.1703 B( 36-C , 75-H ) :   1.0035 B( 37-C , 38-C ) :   1.0234
B( 37-C , 41-C ) :   1.4245 B( 38-C , 39-C ) :   1.6654 B( 38-C , 40-F ) :   1.1222
B( 39-C , 76-H ) :   1.0117 B( 41-C , 42-C ) :   1.1486 B( 41-C , 45-C ) :   1.0169
B( 42-C , 43-C ) :   1.5346 B( 42-C , 77-H ) :   1.0096 B( 43-C , 44-C ) :   1.0146
B( 43-C , 47-C ) :   1.1196 B( 44-C , 45-C ) :   1.6522 B( 44-C , 78-H ) :   1.0219
B( 45-C , 46-F ) :   1.1183 B( 47-C , 48-C ) :   1.6689 B( 47-C , 79-H ) :   0.9750
B( 48-C , 49-C ) :   1.0924 B( 48-C , 80-H ) :   0.9682 B( 49-C , 50-C ) :   1.2188
B( 49-C , 55-C ) :   1.4741 B( 50-C , 51-C ) :   1.5764 B( 50-C , 81-H ) :   0.9985
B( 51-C , 52-S ) :   1.0202 B( 51-C , 54-S ) :   1.1093 B( 52-S , 53-C ) :   1.0150
B( 53-C , 82-H ) :   0.9728 B( 53-C , 83-H ) :   0.9657 B( 53-C , 84-H ) :   0.9648
B( 54-S , 55-C ) :   1.0916 B( 55-C , 56-C ) :   1.1317 B( 56-C , 57-C ) :   1.9097
B( 56-C , 85-H ) :   0.9581 B( 57-C , 86-H ) :   0.9578 B( 57-C , 87-H ) :   0.9507

-----------------------------------------------------------------------------
         ABSORPTION SPECTRUM VIA TRANSITION ELECTRIC DIPOLE MOMENTS
-----------------------------------------------------------------------------
State   Energy  Wavelength   fosc         T2         TX        TY        TZ
        (cm-1)    (nm)                  (au**2)     (au)      (au)      (au)
-----------------------------------------------------------------------------
   0    9822.0   1018.1   2.071405290  69.42915   0.88379   7.38004  -3.76603
   1   13721.9    728.8   0.034303999   0.82301   0.08984  -0.17044   0.88651
   2   14993.9    666.9   0.001039044   0.02281   0.02965   0.10279  -0.10662
   3   15835.9    631.5   0.002809670   0.05841   0.01990  -0.21741  -0.10367
   4   19663.2    508.6   0.037862092   0.63391  -0.04312  -0.77794   0.16388
   5   20074.1    498.2   0.066898156   1.09712   0.11190  -0.88353   0.55134
   6   21071.7    474.6   0.560654270   8.75934  -0.40794  -2.76663   0.96887
   7   22710.9    440.3   0.072281534   1.04778  -0.11549  -0.81952  -0.60235
   8   22928.9    436.1   0.061735137   0.88639  -0.13107  -0.77425   0.51938
   9   24086.4    415.2   0.120365577   1.64515  -0.07275  -1.18140   0.49413
  10   25313.1    395.1   0.032627610   0.42434  -0.15225  -0.43943   0.45614
  11   26974.2    370.7   0.209461833   2.55641  -0.14713  -0.89625   1.31586
  12   28318.9    353.1   0.070085856   0.81476  -0.04475  -0.73308   0.52474
  13   28751.9    347.8   0.036902503   0.42254  -0.15026  -0.18086   0.60601
  14   28861.4    346.5   0.306722581   3.49868   0.29589   1.72681  -0.65518
  15   29757.1    336.1   0.076436024   0.84563  -0.08329  -0.43842   0.80404
  16   31046.4    322.1   0.185486243   1.96687   0.09980  -1.29365   0.53234
  17   31103.9    321.5   0.097656552   1.03362  -0.20626  -0.68560  -0.72182
  18   31519.6    317.3   0.226849137   2.36936  -0.03222   1.48292   0.41143
  19   31628.9    316.2   0.014126707   0.14704   0.27236   0.07555   0.25914
  20   33449.3    299.0   0.006730735   0.06624   0.06635  -0.17835   0.17331
  21   33619.9    297.4   0.107110669   1.04885   0.12667   0.92961  -0.41065
  22   34107.2    293.2   0.032156211   0.31038   0.01680  -0.55271  -0.06793
  23   34227.7    292.2   0.100957293   0.97104   0.05016   0.61466  -0.76858
  24   34470.9    290.1   0.038288881   0.36568   0.04649  -0.24682  -0.55008
  25   34846.0    287.0   0.107348944   1.01419   0.12209  -0.77926   0.62613
  26   35310.5    283.2   0.121481464   1.13261  -0.57677  -0.26102   0.85547
  27   35571.3    281.1   0.085820952   0.79427  -0.20150   0.68227   0.53682
  28   35868.0    278.8   0.011729499   0.10766  -0.10816  -0.22142   0.21664
  29   36415.2    274.6   0.021427042   0.19371   0.30841   0.02324  -0.31314
  30   36580.1    273.4   0.104446788   0.94000  -0.51443   0.33388   0.75092
  31   37177.9    269.0   0.056607801   0.50126   0.05059  -0.01854  -0.70595
  32   37242.0    268.5   0.005346031   0.04726  -0.01558   0.09581   0.19451
  33   37750.9    264.9   0.042138059   0.36747   0.09596   0.51525   0.30460
  34   38862.2    257.3   0.021743467   0.18419  -0.04818   0.04798  -0.42376
  35   39047.0    256.1   0.067100143   0.56573  -0.24458   0.10561   0.70339
  36   40264.1    248.4   0.059526521   0.48671   0.27527   0.56857  -0.29608

FINAL SINGLE POINT ENERGY     -4706.126895352787

DIPOLE MOMENT
-------------
                                X             Y             Z
Electronic contribution:     -2.03868       6.25981       2.46976
Nuclear contribution   :      2.37076      -4.16700      -3.48047
                        -----------------------------------------
Total Dipole Moment    :      0.33207       2.09281      -1.01071
                        -----------------------------------------
Magnitude (a.u.)       :      2.34769
Magnitude (Debye)      :      5.96735

Rotational constants in cm-1:     0.002602     0.000193     0.000181
Rotational constants in MHz :    78.001593     5.794773     5.415768

                             ****ORCA TERMINATED NORMALLY****
TOTAL RUN TIME: 0 days 0 hours 7 minutes 32 seconds 76 msec
