                         Program Version 4.2.0 -  RELEASE  -
|  1> # ORCA input file
|  2> # SCF done       -118.357529631541          0.000373851600
|  3> ! CAM-B3LYP def2-SVP def2/J RIJCOSX Grid4 TightSCF
|  4> %maxcore 5000
|  5> %tddft
|  6>     Mode sTDDFT
|  7>     Ethresh 5.0
|  8>     maxcore 5000
|  9> end
| 10>
| 11> %pal
| 12>   nprocs 6
| 13>   end
| 14> * xyz 0 1
| 15>    C        6.44044        -0.80348        -7.81632
| 16>    C        5.70863        -0.83729        -6.70338
| 17>    C        5.12369         0.30169        -6.06518
| 18>    S        5.30757         1.91481        -6.69365
| 19>    C        4.34622         2.57193        -5.40104
| 20>    S        4.00340         4.27888        -5.24909
| 21>    C        4.82577         4.93520        -6.72757
| 22>    C        3.91480         1.60628        -4.54303
| 23>    C        4.35378         0.30969        -4.91281
| 24>    C        4.04126        -0.84304        -4.18539
| 25>    C        3.76295        -1.83164        -3.54251
| 26>    C        3.44929        -2.96981        -2.80594
| 27>    C        2.58085        -3.12304        -1.73075
| 28>    C        2.62060        -4.46031        -1.34585
| 29>    C        3.51570        -5.11498        -2.18869
| 30>    C        3.91224        -6.47733        -2.20174
| 31>    S        5.09319        -7.07650        -3.35313
| 32>    C        5.01970        -8.70585        -2.72586
| 33>    C        5.78496        -9.72212        -3.25034
| 34>    C        6.46465       -10.61790        -3.71542
| 35>    C        7.23455       -11.64812        -4.22886
| 36>    C        8.17573       -11.63024        -5.25735
| 37>    C        8.67394       -12.92054        -5.38788
| 38>    C        8.04027       -13.72807        -4.44239
| 39>    C        8.16791       -15.11336        -4.14371
| 40>    C        9.00955       -15.96185        -4.77541
| 41>    C        9.13901       -17.34845        -4.48348
| 42>    C        8.49229       -18.14007        -3.56252
| 43>    C        8.89951       -19.47960        -3.57923
| 44>    C        9.86656       -19.73280        -4.51564
| 45>    S       10.60192       -21.28836        -4.80851
| 46>    C       11.75038       -20.88449        -6.15359
| 47>    S       10.28757       -18.29948        -5.39569
| 48>    N        7.17330       -12.92853        -3.75481
| 49>    C        4.11309        -8.76823        -1.67258
| 50>    C        3.65697        -9.79136        -0.81225
| 51>    C        2.73843        -9.33359         0.08568
| 52>    C        2.04278       -10.07823         1.12926
| 53>    O        1.24096        -9.60262         1.89582
| 54>    O        2.40220       -11.37737         1.13934
| 55>    C        1.76952       -12.17412         2.12884
| 56>    S        2.37882        -7.62400        -0.06935
| 57>    C        3.50254        -7.51265        -1.39111
| 58>    N        4.00330        -4.19071        -3.06595
| 59>    H        6.85217        -1.69729        -8.24928
| 60>    H        6.64717         0.12352        -8.32586
| 61>    H        5.50878        -1.77690        -6.20290
| 62>    H        4.65776         6.00725        -6.71882
| 63>    H        4.38514         4.49176        -7.61602
| 64>    H        5.88953         4.72011        -6.67868
| 65>    H        3.30834         1.80696        -3.67922
| 66>    H        1.99279        -2.34317        -1.28977
| 67>    H        2.06949        -4.91592        -0.54800
| 68>    H        8.45116       -10.76763        -5.83113
| 69>    H        9.41525       -13.24195        -6.09174
| 70>    H        7.53372       -15.48637        -3.34992
| 71>    H        9.64330       -15.58458        -5.56543
| 72>    H        7.74106       -17.76671        -2.89071
| 73>    H        8.50545       -20.24268        -2.93318
| 74>    H       12.25917       -21.80820        -6.40920
| 75>    H       12.46511       -20.14205        -5.81005
| 76>    H       11.19220       -20.51171        -7.00771
| 77>    H        6.57434       -13.23372        -3.00537
| 78>    H        3.98783       -10.81270        -0.85135
| 79>    H        2.13935       -13.18610         1.98527
| 80>    H        0.68471       -12.13978         2.00799
| 81>    H        2.02190       -11.81093         3.12740
| 82>    H        4.67445        -4.38084        -3.79216
| 83> *
| 84>
| 85>                          ****END OF INPUT****

CARTESIAN COORDINATES (ANGSTROEM)
---------------------------------
  C      6.440440   -0.803480   -7.816320
  C      5.708630   -0.837290   -6.703380
  C      5.123690    0.301690   -6.065180
  S      5.307570    1.914810   -6.693650
  C      4.346220    2.571930   -5.401040
  S      4.003400    4.278880   -5.249090
  C      4.825770    4.935200   -6.727570
  C      3.914800    1.606280   -4.543030
  C      4.353780    0.309690   -4.912810
  C      4.041260   -0.843040   -4.185390
  C      3.762950   -1.831640   -3.542510
  C      3.449290   -2.969810   -2.805940
  C      2.580850   -3.123040   -1.730750
  C      2.620600   -4.460310   -1.345850
  C      3.515700   -5.114980   -2.188690
  C      3.912240   -6.477330   -2.201740
  S      5.093190   -7.076500   -3.353130
  C      5.019700   -8.705850   -2.725860
  C      5.784960   -9.722120   -3.250340
  C      6.464650  -10.617900   -3.715420
  C      7.234550  -11.648120   -4.228860
  C      8.175730  -11.630240   -5.257350
  C      8.673940  -12.920540   -5.387880
  C      8.040270  -13.728070   -4.442390
  C      8.167910  -15.113360   -4.143710
  C      9.009550  -15.961850   -4.775410
  C      9.139010  -17.348450   -4.483480
  C      8.492290  -18.140070   -3.562520
  C      8.899510  -19.479600   -3.579230
  C      9.866560  -19.732800   -4.515640
  S     10.601920  -21.288360   -4.808510
  C     11.750380  -20.884490   -6.153590
  S     10.287570  -18.299480   -5.395690
  N      7.173300  -12.928530   -3.754810
  C      4.113090   -8.768230   -1.672580
  C      3.656970   -9.791360   -0.812250
  C      2.738430   -9.333590    0.085680
  C      2.042780  -10.078230    1.129260
  O      1.240960   -9.602620    1.895820
  O      2.402200  -11.377370    1.139340
  C      1.769520  -12.174120    2.128840
  S      2.378820   -7.624000   -0.069350
  C      3.502540   -7.512650   -1.391110
  N      4.003300   -4.190710   -3.065950
  H      6.852170   -1.697290   -8.249280
  H      6.647170    0.123520   -8.325860
  H      5.508780   -1.776900   -6.202900
  H      4.657760    6.007250   -6.718820
  H      4.385140    4.491760   -7.616020
  H      5.889530    4.720110   -6.678680
  H      3.308340    1.806960   -3.679220
  H      1.992790   -2.343170   -1.289770
  H      2.069490   -4.915920   -0.548000
  H      8.451160  -10.767630   -5.831130
  H      9.415250  -13.241950   -6.091740
  H      7.533720  -15.486370   -3.349920
  H      9.643300  -15.584580   -5.565430
  H      7.741060  -17.766710   -2.890710
  H      8.505450  -20.242680   -2.933180
  H     12.259170  -21.808200   -6.409200
  H     12.465110  -20.142050   -5.810050
  H     11.192200  -20.511710   -7.007710
  H      6.574340  -13.233720   -3.005370
  H      3.987830  -10.812700   -0.851350
  H      2.139350  -13.186100    1.985270
  H      0.684710  -12.139780    2.007990
  H      2.021900  -11.810930    3.127400
  H      4.674450   -4.380840   -3.792160

 Total Charge           Charge          ....    0
 Multiplicity           Mult            ....    1
 Number of Electrons    NEL             ....  354
 Basis Dimension        Dim             ....  760

ORBITAL ENERGIES
----------------

  NO   OCC          E(Eh)            E(eV)
   0   2.0000     -88.965771     -2420.8817
   1   2.0000     -88.954294     -2420.5694
   2   2.0000     -88.953831     -2420.5568
   3   2.0000     -88.949701     -2420.4444
   4   2.0000     -88.932285     -2419.9705
   5   2.0000     -88.931793     -2419.9571
   6   2.0000     -19.256459      -523.9949
   7   2.0000     -19.201107      -522.4887
   8   2.0000     -14.461034      -393.5047
   9   2.0000     -14.460754      -393.4971
  10   2.0000     -10.400073      -283.0004
  11   2.0000     -10.319958      -280.8203
  12   2.0000     -10.318525      -280.7813
  13   2.0000     -10.315361      -280.6952
  14   2.0000     -10.313645      -280.6486
  15   2.0000     -10.310333      -280.5584
  16   2.0000     -10.308369      -280.5050
  17   2.0000     -10.307681      -280.4863
  18   2.0000     -10.306116      -280.4437
  19   2.0000     -10.304324      -280.3949
  20   2.0000     -10.300663      -280.2953
  21   2.0000     -10.298824      -280.2452
  22   2.0000     -10.297876      -280.2195
  23   2.0000     -10.297029      -280.1964
  24   2.0000     -10.292443      -280.0716
  25   2.0000     -10.292069      -280.0614
  26   2.0000     -10.289251      -279.9847
  27   2.0000     -10.288112      -279.9538
  28   2.0000     -10.285998      -279.8962
  29   2.0000     -10.279023      -279.7064
  30   2.0000     -10.278903      -279.7032
  31   2.0000     -10.276467      -279.6369
  32   2.0000     -10.276442      -279.6362
  33   2.0000     -10.274029      -279.5705
  34   2.0000     -10.268928      -279.4317
  35   2.0000     -10.268904      -279.4311
  36   2.0000     -10.266587      -279.3680
  37   2.0000     -10.266140      -279.3559
  38   2.0000     -10.265764      -279.3456
  39   2.0000     -10.259570      -279.1771
  40   2.0000     -10.258794      -279.1560
  41   2.0000     -10.256299      -279.0881
  42   2.0000     -10.255243      -279.0593
  43   2.0000     -10.253934      -279.0237
  44   2.0000      -8.060653      -219.3415
  45   2.0000      -8.049718      -219.0440
  46   2.0000      -8.049115      -219.0276
  47   2.0000      -8.044487      -218.9016
  48   2.0000      -8.027919      -218.4508
  49   2.0000      -8.027414      -218.4370
  50   2.0000      -6.030135      -164.0883
  51   2.0000      -6.025974      -163.9751
  52   2.0000      -6.022527      -163.8813
  53   2.0000      -6.019203      -163.7908
  54   2.0000      -6.018651      -163.7758
  55   2.0000      -6.014926      -163.6745
  56   2.0000      -6.014360      -163.6591
  57   2.0000      -6.014359      -163.6590
  58   2.0000      -6.011664      -163.5857
  59   2.0000      -6.010940      -163.5660
  60   2.0000      -6.010125      -163.5438
  61   2.0000      -6.005526      -163.4187
  62   2.0000      -5.998390      -163.2245
  63   2.0000      -5.997897      -163.2111
  64   2.0000      -5.994308      -163.1134
  65   2.0000      -5.993793      -163.0994
  66   2.0000      -5.987484      -162.9277
  67   2.0000      -5.986954      -162.9133
  68   2.0000      -1.186935       -32.2981
  69   2.0000      -1.094006       -29.7694
  70   2.0000      -1.080017       -29.3887
  71   2.0000      -1.078336       -29.3430
  72   2.0000      -1.004758       -27.3408
  73   2.0000      -0.984795       -26.7976
  74   2.0000      -0.981450       -26.7066
  75   2.0000      -0.945976       -25.7413
  76   2.0000      -0.908017       -24.7084
  77   2.0000      -0.905542       -24.6410
  78   2.0000      -0.894784       -24.3483
  79   2.0000      -0.885076       -24.0842
  80   2.0000      -0.872671       -23.7466
  81   2.0000      -0.870309       -23.6823
  82   2.0000      -0.868268       -23.6268
  83   2.0000      -0.862272       -23.4636
  84   2.0000      -0.853481       -23.2244
  85   2.0000      -0.845665       -23.0117
  86   2.0000      -0.833662       -22.6851
  87   2.0000      -0.828274       -22.5385
  88   2.0000      -0.818253       -22.2658
  89   2.0000      -0.805835       -21.9279
  90   2.0000      -0.799771       -21.7629
  91   2.0000      -0.792061       -21.5531
  92   2.0000      -0.787174       -21.4201
  93   2.0000      -0.764530       -20.8039
  94   2.0000      -0.738698       -20.1010
  95   2.0000      -0.735384       -20.0108
  96   2.0000      -0.718597       -19.5540
  97   2.0000      -0.708070       -19.2676
  98   2.0000      -0.698927       -19.0188
  99   2.0000      -0.682885       -18.5822
 100   2.0000      -0.681201       -18.5364
 101   2.0000      -0.679331       -18.4855
 102   2.0000      -0.669151       -18.2085
 103   2.0000      -0.667248       -18.1567
 104   2.0000      -0.650697       -17.7064
 105   2.0000      -0.638151       -17.3650
 106   2.0000      -0.635194       -17.2845
 107   2.0000      -0.630060       -17.1448
 108   2.0000      -0.621511       -16.9122
 109   2.0000      -0.619496       -16.8573
 110   2.0000      -0.609815       -16.5939
 111   2.0000      -0.591362       -16.0918
 112   2.0000      -0.585527       -15.9330
 113   2.0000      -0.582230       -15.8433
 114   2.0000      -0.575548       -15.6615
 115   2.0000      -0.567537       -15.4435
 116   2.0000      -0.566629       -15.4188
 117   2.0000      -0.545947       -14.8560
 118   2.0000      -0.539134       -14.6706
 119   2.0000      -0.533304       -14.5119
 120   2.0000      -0.531449       -14.4615
 121   2.0000      -0.525079       -14.2881
 122   2.0000      -0.524353       -14.2684
 123   2.0000      -0.523351       -14.2411
 124   2.0000      -0.520681       -14.1685
 125   2.0000      -0.518350       -14.1050
 126   2.0000      -0.517650       -14.0860
 127   2.0000      -0.515789       -14.0353
 128   2.0000      -0.513446       -13.9716
 129   2.0000      -0.506168       -13.7735
 130   2.0000      -0.501859       -13.6563
 131   2.0000      -0.499920       -13.6035
 132   2.0000      -0.498204       -13.5568
 133   2.0000      -0.491512       -13.3747
 134   2.0000      -0.482165       -13.1204
 135   2.0000      -0.481145       -13.0926
 136   2.0000      -0.480204       -13.0670
 137   2.0000      -0.479664       -13.0523
 138   2.0000      -0.476526       -12.9669
 139   2.0000      -0.472472       -12.8566
 140   2.0000      -0.470477       -12.8023
 141   2.0000      -0.467843       -12.7307
 142   2.0000      -0.463364       -12.6088
 143   2.0000      -0.462467       -12.5844
 144   2.0000      -0.458169       -12.4674
 145   2.0000      -0.452039       -12.3006
 146   2.0000      -0.451922       -12.2974
 147   2.0000      -0.435904       -11.8616
 148   2.0000      -0.432262       -11.7625
 149   2.0000      -0.427389       -11.6298
 150   2.0000      -0.425847       -11.5879
 151   2.0000      -0.417145       -11.3511
 152   2.0000      -0.412703       -11.2302
 153   2.0000      -0.410659       -11.1746
 154   2.0000      -0.410148       -11.1607
 155   2.0000      -0.401474       -10.9247
 156   2.0000      -0.392483       -10.6800
 157   2.0000      -0.392329       -10.6758
 158   2.0000      -0.391182       -10.6446
 159   2.0000      -0.382074       -10.3968
 160   2.0000      -0.375426       -10.2159
 161   2.0000      -0.359961        -9.7950
 162   2.0000      -0.356345        -9.6966
 163   2.0000      -0.348631        -9.4867
 164   2.0000      -0.344249        -9.3675
 165   2.0000      -0.334109        -9.0916
 166   2.0000      -0.327012        -8.8984
 167   2.0000      -0.326149        -8.8750
 168   2.0000      -0.323615        -8.8060
 169   2.0000      -0.321124        -8.7382
 170   2.0000      -0.320570        -8.7232
 171   2.0000      -0.307581        -8.3697
 172   2.0000      -0.292323        -7.9545
 173   2.0000      -0.272917        -7.4264
 174   2.0000      -0.251184        -6.8351
 175   2.0000      -0.234529        -6.3819
 176   2.0000      -0.208232        -5.6663
 177   0.0000      -0.055971        -1.5230
 178   0.0000      -0.020378        -0.5545
 179   0.0000      -0.017391        -0.4732
 180   0.0000       0.011050         0.3007
 181   0.0000       0.039501         1.0749

MULLIKEN ATOMIC CHARGES
-----------------------
   0 C :   -0.032986
   1 C :    0.020201
   2 C :   -0.113432
   3 S :    0.089370
   4 C :   -0.130833
   5 S :    0.002976
   6 C :   -0.098179
   7 C :    0.033111
   8 C :    0.037664
   9 C :   -0.095090
  10 C :    0.057053
  11 C :    0.007115
  12 C :   -0.000862
  13 C :   -0.058186
  14 C :    0.063284
  15 C :   -0.111239
  16 S :    0.152871
  17 C :   -0.178230
  18 C :   -0.063059
  19 C :    0.056722
  20 C :   -0.019098
  21 C :    0.002080
  22 C :   -0.051463
  23 C :    0.094990
  24 C :    0.007717
  25 C :    0.059312
  26 C :   -0.092207
  27 C :    0.008915
  28 C :    0.035318
  29 C :   -0.140070
  30 S :    0.001456
  31 C :   -0.096867
  32 S :    0.095660
  33 N :   -0.049551
  34 C :    0.161187
  35 C :    0.000216
  36 C :   -0.138412
  37 C :    0.207386
  38 O :   -0.201689
  39 O :   -0.309674
  40 C :    0.191727
  41 S :    0.154564
  42 C :   -0.060061
  43 N :   -0.062320
  44 H :    0.020472
  45 H :    0.016108
  46 H :   -0.011571
  47 H :    0.068270
  48 H :    0.070949
  49 H :    0.072776
  50 H :   -0.015911
  51 H :   -0.027272
  52 H :   -0.021822
  53 H :   -0.028947
  54 H :   -0.027097
  55 H :   -0.035962
  56 H :   -0.021760
  57 H :   -0.022004
  58 H :   -0.017260
  59 H :    0.066223
  60 H :    0.071645
  61 H :    0.070846
  62 H :    0.119499
  63 H :   -0.007489
  64 H :    0.030233
  65 H :    0.034850
  66 H :    0.032807
  67 H :    0.125027
Sum of atomic charges:   -0.0000000

LOEWDIN ATOMIC CHARGES
----------------------
   0 C :   -0.059993
   1 C :   -0.034137
   2 C :   -0.175070
   3 S :    0.421560
   4 C :   -0.309024
   5 S :    0.294339
   6 C :   -0.162081
   7 C :   -0.080786
   8 C :   -0.066182
   9 C :   -0.027402
  10 C :   -0.050469
  11 C :   -0.031928
  12 C :   -0.041418
  13 C :   -0.065832
  14 C :   -0.029817
  15 C :   -0.194143
  16 S :    0.441856
  17 C :   -0.187739
  18 C :   -0.066840
  19 C :   -0.034393
  20 C :   -0.042704
  21 C :   -0.039004
  22 C :   -0.067925
  23 C :   -0.007394
  24 C :   -0.042731
  25 C :   -0.036062
  26 C :   -0.184796
  27 C :   -0.052311
  28 C :   -0.094701
  29 C :   -0.321099
  30 S :    0.292256
  31 C :   -0.161564
  32 S :    0.414922
  33 N :    0.101218
  34 C :   -0.066653
  35 C :   -0.009083
  36 C :   -0.199107
  37 C :    0.066685
  38 O :   -0.176973
  39 O :   -0.100100
  40 C :    0.081079
  41 S :    0.425074
  42 C :   -0.185492
  43 N :    0.096489
  44 H :    0.024984
  45 H :    0.015489
  46 H :    0.034598
  47 H :    0.035773
  48 H :    0.024673
  49 H :    0.024385
  50 H :    0.032794
  51 H :    0.029938
  52 H :    0.020336
  53 H :    0.028456
  54 H :    0.023230
  55 H :    0.023994
  56 H :    0.027211
  57 H :    0.026125
  58 H :    0.028598
  59 H :    0.035214
  60 H :    0.024285
  61 H :    0.024205
  62 H :    0.091058
  63 H :    0.037156
  64 H :    0.024316
  65 H :    0.023930
  66 H :    0.023596
  67 H :    0.085136

  Mayer bond orders larger than 0.100000
B(  0-C ,  1-C ) :   1.9042 B(  0-C , 44-H ) :   0.9489 B(  0-C , 45-H ) :   0.9570
B(  1-C ,  2-C ) :   1.1554 B(  1-C , 46-H ) :   0.9516 B(  2-C ,  3-S ) :   1.0729
B(  2-C ,  8-C ) :   1.4884 B(  3-S ,  4-C ) :   1.1142 B(  4-C ,  5-S ) :   1.0211
B(  4-C ,  7-C ) :   1.5645 B(  5-S ,  6-C ) :   1.0147 B(  6-C , 47-H ) :   0.9727
B(  6-C , 48-H ) :   0.9657 B(  6-C , 49-H ) :   0.9646 B(  7-C ,  8-C ) :   1.2436
B(  7-C , 50-H ) :   0.9999 B(  8-C ,  9-C ) :   0.8954 B(  9-C , 10-C ) :   2.2766
B( 10-C , 11-C ) :   0.7895 B( 11-C , 12-C ) :   1.4501 B( 11-C , 14-C ) :   0.1341
B( 11-C , 43-N ) :   1.2284 B( 12-C , 13-C ) :   1.3134 B( 12-C , 51-H ) :   1.0137
B( 13-C , 14-C ) :   1.4314 B( 13-C , 52-H ) :   0.9992 B( 14-C , 15-C ) :   1.0779
B( 14-C , 43-N ) :   1.2339 B( 15-C , 16-S ) :   1.1018 B( 15-C , 17-C ) :   0.1170
B( 15-C , 42-C ) :   1.5651 B( 16-S , 17-C ) :   1.1070 B( 17-C , 18-C ) :   0.9965
B( 17-C , 34-C ) :   1.4003 B( 18-C , 19-C ) :   2.1990 B( 19-C , 20-C ) :   0.8372
B( 20-C , 21-C ) :   1.4209 B( 20-C , 23-C ) :   0.1180 B( 20-C , 33-N ) :   1.2281
B( 21-C , 22-C ) :   1.3364 B( 21-C , 53-H ) :   1.0132 B( 22-C , 23-C ) :   1.4066
B( 22-C , 54-H ) :   1.0029 B( 23-C , 24-C ) :   1.0957 B( 23-C , 33-N ) :   1.2085
B( 24-C , 25-C ) :   1.7224 B( 24-C , 55-H ) :   0.9577 B( 25-C , 26-C ) :   1.1168
B( 25-C , 56-H ) :   0.9640 B( 26-C , 27-C ) :   1.5236 B( 26-C , 32-S ) :   1.0952
B( 27-C , 28-C ) :   1.2849 B( 27-C , 57-H ) :   0.9922 B( 28-C , 29-C ) :   1.5498
B( 28-C , 58-H ) :   0.9928 B( 29-C , 30-S ) :   1.0199 B( 29-C , 32-S ) :   1.1217
B( 30-S , 31-C ) :   1.0160 B( 31-C , 59-H ) :   0.9732 B( 31-C , 60-H ) :   0.9649
B( 31-C , 61-H ) :   0.9652 B( 33-N , 62-H ) :   0.9379 B( 34-C , 35-C ) :   1.1329
B( 34-C , 42-C ) :   1.2287 B( 35-C , 36-C ) :   1.5982 B( 35-C , 63-H ) :   1.0070
B( 36-C , 37-C ) :   0.9738 B( 36-C , 41-S ) :   1.0630 B( 37-C , 38-O ) :   2.1379
B( 37-C , 39-O ) :   1.2330 B( 39-O , 40-C ) :   0.9243 B( 40-C , 64-H ) :   0.9810
B( 40-C , 65-H ) :   0.9755 B( 40-C , 66-H ) :   0.9769 B( 41-S , 42-C ) :   1.0453
B( 43-N , 67-H ) :   0.9322

-----------------------------------------------------------------------------
         ABSORPTION SPECTRUM VIA TRANSITION ELECTRIC DIPOLE MOMENTS
-----------------------------------------------------------------------------
State   Energy  Wavelength   fosc         T2         TX        TY        TZ
        (cm-1)    (nm)                  (au**2)     (au)      (au)      (au)
-----------------------------------------------------------------------------
   0   18384.2    543.9   1.597668397  28.61001   2.14447  -4.83649  -0.78720
   1   25774.1    388.0   0.227388343   2.90442  -1.10958   0.74860   1.05492
   2   27281.6    366.5   0.942890669  11.37803   0.50343   2.89961  -1.64829
   3   27930.6    358.0   0.254709718   3.00221   0.92058  -1.29762  -0.68625
   4   30685.0    325.9   0.085605178   0.91844   0.47659   0.29326  -0.77801
   5   33039.1    302.7   0.174219626   1.73598   0.61429   0.67459  -0.95055
   6   33519.7    298.3   0.061271425   0.60177  -0.08601   0.77096   0.00225
   7   33616.9    297.5   0.319572482   3.12959  -0.53215   1.65069   0.34877
   8   35163.6    284.4   0.096368313   0.90223   0.20486   0.67107  -0.64026
   9   35436.8    282.2   0.107823256   1.00169  -0.59400   0.31867   0.73980
  10   36440.1    274.4   0.145637757   1.31574  -0.25185   1.11859  -0.03263
  11   37056.3    269.9   0.160463452   1.42558   0.26556  -1.15774  -0.12124
  12   39920.6    250.5   0.636937726   5.25261  -0.75817  -1.69798   1.33964

FINAL SINGLE POINT ENERGY     -3956.318352003589

DIPOLE MOMENT
-------------
                                X             Y             Z
Electronic contribution:    -10.82059      13.07291       9.08615
Nuclear contribution   :     12.02981     -14.25945     -10.11918
                        -----------------------------------------
Total Dipole Moment    :      1.20922      -1.18654      -1.03303
                        -----------------------------------------
Magnitude (a.u.)       :      1.98425
Magnitude (Debye)      :      5.04356

Rotational constants in cm-1:     0.002461     0.000403     0.000347
Rotational constants in MHz :    73.781253    12.085226    10.392381

                             ****ORCA TERMINATED NORMALLY****
TOTAL RUN TIME: 0 days 0 hours 3 minutes 58 seconds 0 msec
