                         Program Version 4.2.0 -  RELEASE  -
|  1> # ORCA input file
|  2> # SCF done       -171.955175839532          0.000701246521
|  3> ! CAM-B3LYP def2-SVP def2/J RIJCOSX Grid4 TightSCF
|  4> %maxcore 5000
|  5> %tddft
|  6>     Mode sTDDFT
|  7>     Ethresh 5.0
|  8>     maxcore 5000
|  9> end
| 10>
| 11> %pal
| 12>   nprocs 6
| 13>   end
| 14> * xyz 0 1
| 15>    C       -7.25453        -3.51011         3.45661
| 16>    O       -5.99436        -3.16587         3.70185
| 17>    C       -5.34123        -3.07110         2.51345
| 18>    C       -6.23098        -3.35037         1.47549
| 19>    C       -7.47403        -3.64886         2.10738
| 20>    C       -8.76899        -4.13672         1.56442
| 21>    F       -9.67759        -4.29194         2.53573
| 22>    F       -9.33512        -3.34884         0.63828
| 23>    F       -8.65296        -5.35224         0.97672
| 24>    O       -5.84908        -3.29415         0.18137
| 25>    C       -6.75676        -3.65163        -0.84195
| 26>    C       -3.94472        -2.79022         2.51099
| 27>    C       -3.21815        -2.66646         1.37080
| 28>    C       -1.83142        -2.45706         1.27085
| 29>    C       -1.06820        -2.23073         0.09659
| 30>    C        0.31792        -1.99547         0.43311
| 31>    C        0.58011        -2.04878         1.76754
| 32>    S       -0.82859        -2.41558         2.69767
| 33>    O       -0.50024        -4.05334         3.03949
| 34>    O        1.27224        -1.68140        -0.45256
| 35>    C       -1.67619        -2.12911        -1.15418
| 36>    C       -1.20737        -1.95860        -2.44386
| 37>    C       -2.11493        -1.67365        -3.46719
| 38>    S       -3.79663        -1.40711        -3.07600
| 39>    C       -4.19971        -0.96312        -4.72249
| 40>    C       -3.05376        -1.10196        -5.53716
| 41>    C       -1.91113        -1.45997        -4.84069
| 42>    C       -0.56576        -1.58894        -5.48756
| 43>    C       -0.52921        -0.81220        -6.81049
| 44>    C       -0.58233         0.60780        -6.54746
| 45>    N       -0.63499         1.72885        -6.33330
| 46>    C       -1.73437        -1.21543        -7.68557
| 47>    C       -1.69316        -2.64099        -7.92291
| 48>    N       -1.65850        -3.76762        -8.10939
| 49>    C       -3.06102        -0.82970        -7.01079
| 50>    C       -5.49663        -0.56330        -5.01927
| 51>    C       -6.55221        -0.22991        -4.13330
| 52>    C       -7.76143         0.02156        -4.82872
| 53>    C       -7.64539        -0.07339        -6.20409
| 54>    S       -6.10383        -0.57491        -6.69233
| 55>    O       -6.09495        -2.30997        -6.75957
| 56>    O       -8.90271         0.44425        -4.27137
| 57>    C       -6.34876        -0.03900        -2.73513
| 58>    C       -7.21944        -0.20007        -1.70729
| 59>    C       -6.77016        -0.04373        -0.35932
| 60>    O       -5.46454         0.14736        -0.11741
| 61>    C       -5.25020         0.21418         1.22978
| 62>    C       -6.46747         0.06166         1.87523
| 63>    C       -7.44457        -0.10390         0.85196
| 64>    C       -8.89821        -0.18541         1.12528
| 65>    F       -9.62178        -0.54219         0.04961
| 66>    F       -9.20454        -1.05492         2.09947
| 67>    F       -9.40836         1.00269         1.52062
| 68>    O       -6.84798         0.04375         3.16678
| 69>    C       -5.88825         0.22266         4.18048
| 70>    C       -3.89914         0.43728         1.66953
| 71>    C       -2.86913         0.58259         0.83571
| 72>    H       -7.92498        -3.62456         4.28376
| 73>    H       -6.19761        -3.53230        -1.76879
| 74>    H       -7.62265        -2.98800        -0.86219
| 75>    H       -7.08275        -4.68977        -0.74504
| 76>    H       -3.48471        -2.69366         3.48623
| 77>    H       -3.76204        -2.75412         0.44466
| 78>    H        1.51763        -1.84896         2.24277
| 79>    H       -1.15786        -4.43788         3.62652
| 80>    H        0.87586        -1.59304        -1.32897
| 81>    H       -2.75653        -2.15591        -1.09603
| 82>    H       -0.16650        -2.05417        -2.72523
| 83>    H       -0.34802        -2.64379        -5.68712
| 84>    H        0.21082        -1.20714        -4.81968
| 85>    H        0.40640        -1.02635        -7.34210
| 86>    H       -1.66851        -0.71660        -8.66086
| 87>    H       -3.86402        -1.39986        -7.48347
| 88>    H       -3.25690         0.23416        -7.18378
| 89>    H       -8.39694         0.19369        -6.91629
| 90>    H       -6.48102        -2.64206        -7.57503
| 91>    H       -8.78429         0.56178        -3.31817
| 92>    H       -5.35009         0.26035        -2.45248
| 93>    H       -8.23667        -0.53775        -1.83092
| 94>    H       -6.44694         0.17217         5.11388
| 95>    H       -5.40303         1.19967         4.09967
| 96>    H       -5.13885        -0.57291         4.16190
| 97>    H       -3.73828         0.48984         2.73360
| 98>    H       -2.99801         0.53099        -0.23019
| 99>    H       -1.87368         0.75588         1.20315
|100> *
|101>
|102>                          ****END OF INPUT****

CARTESIAN COORDINATES (ANGSTROEM)
---------------------------------
  C     -7.254530   -3.510110    3.456610
  O     -5.994360   -3.165870    3.701850
  C     -5.341230   -3.071100    2.513450
  C     -6.230980   -3.350370    1.475490
  C     -7.474030   -3.648860    2.107380
  C     -8.768990   -4.136720    1.564420
  F     -9.677590   -4.291940    2.535730
  F     -9.335120   -3.348840    0.638280
  F     -8.652960   -5.352240    0.976720
  O     -5.849080   -3.294150    0.181370
  C     -6.756760   -3.651630   -0.841950
  C     -3.944720   -2.790220    2.510990
  C     -3.218150   -2.666460    1.370800
  C     -1.831420   -2.457060    1.270850
  C     -1.068200   -2.230730    0.096590
  C      0.317920   -1.995470    0.433110
  C      0.580110   -2.048780    1.767540
  S     -0.828590   -2.415580    2.697670
  O     -0.500240   -4.053340    3.039490
  O      1.272240   -1.681400   -0.452560
  C     -1.676190   -2.129110   -1.154180
  C     -1.207370   -1.958600   -2.443860
  C     -2.114930   -1.673650   -3.467190
  S     -3.796630   -1.407110   -3.076000
  C     -4.199710   -0.963120   -4.722490
  C     -3.053760   -1.101960   -5.537160
  C     -1.911130   -1.459970   -4.840690
  C     -0.565760   -1.588940   -5.487560
  C     -0.529210   -0.812200   -6.810490
  C     -0.582330    0.607800   -6.547460
  N     -0.634990    1.728850   -6.333300
  C     -1.734370   -1.215430   -7.685570
  C     -1.693160   -2.640990   -7.922910
  N     -1.658500   -3.767620   -8.109390
  C     -3.061020   -0.829700   -7.010790
  C     -5.496630   -0.563300   -5.019270
  C     -6.552210   -0.229910   -4.133300
  C     -7.761430    0.021560   -4.828720
  C     -7.645390   -0.073390   -6.204090
  S     -6.103830   -0.574910   -6.692330
  O     -6.094950   -2.309970   -6.759570
  O     -8.902710    0.444250   -4.271370
  C     -6.348760   -0.039000   -2.735130
  C     -7.219440   -0.200070   -1.707290
  C     -6.770160   -0.043730   -0.359320
  O     -5.464540    0.147360   -0.117410
  C     -5.250200    0.214180    1.229780
  C     -6.467470    0.061660    1.875230
  C     -7.444570   -0.103900    0.851960
  C     -8.898210   -0.185410    1.125280
  F     -9.621780   -0.542190    0.049610
  F     -9.204540   -1.054920    2.099470
  F     -9.408360    1.002690    1.520620
  O     -6.847980    0.043750    3.166780
  C     -5.888250    0.222660    4.180480
  C     -3.899140    0.437280    1.669530
  C     -2.869130    0.582590    0.835710
  H     -7.924980   -3.624560    4.283760
  H     -6.197610   -3.532300   -1.768790
  H     -7.622650   -2.988000   -0.862190
  H     -7.082750   -4.689770   -0.745040
  H     -3.484710   -2.693660    3.486230
  H     -3.762040   -2.754120    0.444660
  H      1.517630   -1.848960    2.242770
  H     -1.157860   -4.437880    3.626520
  H      0.875860   -1.593040   -1.328970
  H     -2.756530   -2.155910   -1.096030
  H     -0.166500   -2.054170   -2.725230
  H     -0.348020   -2.643790   -5.687120
  H      0.210820   -1.207140   -4.819680
  H      0.406400   -1.026350   -7.342100
  H     -1.668510   -0.716600   -8.660860
  H     -3.864020   -1.399860   -7.483470
  H     -3.256900    0.234160   -7.183780
  H     -8.396940    0.193690   -6.916290
  H     -6.481020   -2.642060   -7.575030
  H     -8.784290    0.561780   -3.318170
  H     -5.350090    0.260350   -2.452480
  H     -8.236670   -0.537750   -1.830920
  H     -6.446940    0.172170    5.113880
  H     -5.403030    1.199670    4.099670
  H     -5.138850   -0.572910    4.161900
  H     -3.738280    0.489840    2.733600
  H     -2.998010    0.530990   -0.230190
  H     -1.873680    0.755880    1.203150

 Total Charge           Charge          ....    0
 Multiplicity           Mult            ....    1
 Number of Electrons    NEL             ....  436
 Basis Dimension        Dim             ....  950

ORBITAL ENERGIES
----------------

  NO   OCC          E(Eh)            E(eV)
   0   2.0000     -89.063749     -2423.5478
   1   2.0000     -89.055483     -2423.3229
   2   2.0000     -88.945386     -2420.3270
   3   2.0000     -24.786967      -674.4877
   4   2.0000     -24.786307      -674.4697
   5   2.0000     -24.784614      -674.4236
   6   2.0000     -24.780959      -674.3242
   7   2.0000     -24.775753      -674.1825
   8   2.0000     -24.769301      -674.0069
   9   2.0000     -19.287185      -524.8310
  10   2.0000     -19.280507      -524.6493
  11   2.0000     -19.276135      -524.5303
  12   2.0000     -19.260933      -524.1166
  13   2.0000     -19.248433      -523.7765
  14   2.0000     -19.246722      -523.7299
  15   2.0000     -19.244412      -523.6671
  16   2.0000     -19.235702      -523.4301
  17   2.0000     -14.416581      -392.2951
  18   2.0000     -14.416299      -392.2874
  19   2.0000     -10.508220      -285.9432
  20   2.0000     -10.500132      -285.7231
  21   2.0000     -10.373977      -282.2903
  22   2.0000     -10.353097      -281.7221
  23   2.0000     -10.343716      -281.4668
  24   2.0000     -10.343594      -281.4635
  25   2.0000     -10.335085      -281.2320
  26   2.0000     -10.328477      -281.0521
  27   2.0000     -10.324307      -280.9387
  28   2.0000     -10.323802      -280.9249
  29   2.0000     -10.319728      -280.8141
  30   2.0000     -10.315323      -280.6942
  31   2.0000     -10.315122      -280.6887
  32   2.0000     -10.314888      -280.6824
  33   2.0000     -10.312314      -280.6123
  34   2.0000     -10.311638      -280.5939
  35   2.0000     -10.310690      -280.5681
  36   2.0000     -10.306744      -280.4608
  37   2.0000     -10.306399      -280.4514
  38   2.0000     -10.303420      -280.3703
  39   2.0000     -10.302944      -280.3574
  40   2.0000     -10.296031      -280.1693
  41   2.0000     -10.295299      -280.1493
  42   2.0000     -10.294981      -280.1407
  43   2.0000     -10.293614      -280.1035
  44   2.0000     -10.293043      -280.0879
  45   2.0000     -10.279184      -279.7108
  46   2.0000     -10.278436      -279.6905
  47   2.0000     -10.277949      -279.6772
  48   2.0000     -10.277250      -279.6582
  49   2.0000     -10.269972      -279.4601
  50   2.0000     -10.269020      -279.4342
  51   2.0000     -10.268655      -279.4243
  52   2.0000     -10.268534      -279.4210
  53   2.0000     -10.266965      -279.3783
  54   2.0000     -10.265409      -279.3360
  55   2.0000     -10.260741      -279.2090
  56   2.0000     -10.246316      -278.8164
  57   2.0000      -8.147714      -221.7106
  58   2.0000      -8.138778      -221.4674
  59   2.0000      -8.040345      -218.7889
  60   2.0000      -6.118803      -166.5011
  61   2.0000      -6.114251      -166.3772
  62   2.0000      -6.109238      -166.2408
  63   2.0000      -6.108925      -166.2323
  64   2.0000      -6.105630      -166.1426
  65   2.0000      -6.100443      -166.0015
  66   2.0000      -6.010192      -163.5456
  67   2.0000      -6.005933      -163.4297
  68   2.0000      -6.001350      -163.3050
  69   2.0000      -1.375386       -37.4262
  70   2.0000      -1.366170       -37.1754
  71   2.0000      -1.279783       -34.8247
  72   2.0000      -1.272714       -34.6323
  73   2.0000      -1.272015       -34.6133
  74   2.0000      -1.261936       -34.3390
  75   2.0000      -1.206608       -32.8335
  76   2.0000      -1.198198       -32.6046
  77   2.0000      -1.178461       -32.0675
  78   2.0000      -1.157961       -31.5097
  79   2.0000      -1.148931       -31.2640
  80   2.0000      -1.142968       -31.1018
  81   2.0000      -1.129442       -30.7337
  82   2.0000      -1.112422       -30.2705
  83   2.0000      -1.020718       -27.7752
  84   2.0000      -1.001425       -27.2502
  85   2.0000      -0.997579       -27.1455
  86   2.0000      -0.988303       -26.8931
  87   2.0000      -0.976431       -26.5700
  88   2.0000      -0.955360       -25.9967
  89   2.0000      -0.913285       -24.8518
  90   2.0000      -0.910566       -24.7778
  91   2.0000      -0.904021       -24.5997
  92   2.0000      -0.900206       -24.4959
  93   2.0000      -0.896477       -24.3944
  94   2.0000      -0.888958       -24.1898
  95   2.0000      -0.877217       -23.8703
  96   2.0000      -0.858877       -23.3712
  97   2.0000      -0.857795       -23.3418
  98   2.0000      -0.850349       -23.1392
  99   2.0000      -0.837156       -22.7802
 100   2.0000      -0.829336       -22.5674
 101   2.0000      -0.810052       -22.0426
 102   2.0000      -0.806489       -21.9457
 103   2.0000      -0.793847       -21.6017
 104   2.0000      -0.784776       -21.3548
 105   2.0000      -0.782913       -21.3041
 106   2.0000      -0.771691       -20.9988
 107   2.0000      -0.770140       -20.9566
 108   2.0000      -0.754614       -20.5341
 109   2.0000      -0.751314       -20.4443
 110   2.0000      -0.733907       -19.9706
 111   2.0000      -0.719044       -19.5662
 112   2.0000      -0.706664       -19.2293
 113   2.0000      -0.699956       -19.0468
 114   2.0000      -0.697887       -18.9905
 115   2.0000      -0.690768       -18.7968
 116   2.0000      -0.683343       -18.5947
 117   2.0000      -0.681915       -18.5559
 118   2.0000      -0.672704       -18.3052
 119   2.0000      -0.666408       -18.1339
 120   2.0000      -0.663810       -18.0632
 121   2.0000      -0.658023       -17.9057
 122   2.0000      -0.654264       -17.8034
 123   2.0000      -0.648975       -17.6595
 124   2.0000      -0.647486       -17.6190
 125   2.0000      -0.641008       -17.4427
 126   2.0000      -0.639538       -17.4027
 127   2.0000      -0.635715       -17.2987
 128   2.0000      -0.629323       -17.1248
 129   2.0000      -0.610430       -16.6106
 130   2.0000      -0.608379       -16.5548
 131   2.0000      -0.605134       -16.4665
 132   2.0000      -0.603343       -16.4178
 133   2.0000      -0.599976       -16.3262
 134   2.0000      -0.597146       -16.2492
 135   2.0000      -0.595208       -16.1964
 136   2.0000      -0.584643       -15.9089
 137   2.0000      -0.582451       -15.8493
 138   2.0000      -0.573157       -15.5964
 139   2.0000      -0.568590       -15.4721
 140   2.0000      -0.564165       -15.3517
 141   2.0000      -0.555892       -15.1266
 142   2.0000      -0.553509       -15.0618
 143   2.0000      -0.550640       -14.9837
 144   2.0000      -0.548974       -14.9383
 145   2.0000      -0.542607       -14.7651
 146   2.0000      -0.540762       -14.7149
 147   2.0000      -0.538410       -14.6509
 148   2.0000      -0.535745       -14.5784
 149   2.0000      -0.535425       -14.5697
 150   2.0000      -0.533242       -14.5102
 151   2.0000      -0.532310       -14.4849
 152   2.0000      -0.528088       -14.3700
 153   2.0000      -0.526649       -14.3308
 154   2.0000      -0.525883       -14.3100
 155   2.0000      -0.523197       -14.2369
 156   2.0000      -0.522587       -14.2203
 157   2.0000      -0.521118       -14.1803
 158   2.0000      -0.517856       -14.0916
 159   2.0000      -0.515124       -14.0172
 160   2.0000      -0.512542       -13.9470
 161   2.0000      -0.510544       -13.8926
 162   2.0000      -0.508022       -13.8240
 163   2.0000      -0.504307       -13.7229
 164   2.0000      -0.501181       -13.6378
 165   2.0000      -0.498920       -13.5763
 166   2.0000      -0.496024       -13.4975
 167   2.0000      -0.494075       -13.4445
 168   2.0000      -0.492559       -13.4032
 169   2.0000      -0.490950       -13.3594
 170   2.0000      -0.487846       -13.2750
 171   2.0000      -0.483574       -13.1587
 172   2.0000      -0.479569       -13.0497
 173   2.0000      -0.478643       -13.0245
 174   2.0000      -0.474062       -12.8999
 175   2.0000      -0.470258       -12.7964
 176   2.0000      -0.467000       -12.7077
 177   2.0000      -0.465519       -12.6674
 178   2.0000      -0.460630       -12.5344
 179   2.0000      -0.459761       -12.5107
 180   2.0000      -0.456983       -12.4351
 181   2.0000      -0.455495       -12.3947
 182   2.0000      -0.449812       -12.2400
 183   2.0000      -0.449480       -12.2310
 184   2.0000      -0.446517       -12.1503
 185   2.0000      -0.444695       -12.1008
 186   2.0000      -0.443914       -12.0795
 187   2.0000      -0.441721       -12.0198
 188   2.0000      -0.438103       -11.9214
 189   2.0000      -0.433570       -11.7980
 190   2.0000      -0.432503       -11.7690
 191   2.0000      -0.428052       -11.6479
 192   2.0000      -0.426563       -11.6074
 193   2.0000      -0.426096       -11.5947
 194   2.0000      -0.421659       -11.4739
 195   2.0000      -0.419316       -11.4102
 196   2.0000      -0.417615       -11.3639
 197   2.0000      -0.413260       -11.2454
 198   2.0000      -0.405481       -11.0337
 199   2.0000      -0.401528       -10.9261
 200   2.0000      -0.400431       -10.8963
 201   2.0000      -0.396844       -10.7987
 202   2.0000      -0.392809       -10.6889
 203   2.0000      -0.387413       -10.5420
 204   2.0000      -0.382199       -10.4002
 205   2.0000      -0.381035       -10.3685
 206   2.0000      -0.374675       -10.1954
 207   2.0000      -0.353923        -9.6307
 208   2.0000      -0.341676        -9.2975
 209   2.0000      -0.330699        -8.9988
 210   2.0000      -0.323791        -8.8108
 211   2.0000      -0.317846        -8.6490
 212   2.0000      -0.316407        -8.6099
 213   2.0000      -0.298624        -8.1260
 214   2.0000      -0.276204        -7.5159
 215   2.0000      -0.243686        -6.6310
 216   2.0000      -0.218728        -5.9519
 217   2.0000      -0.188351        -5.1253
 218   0.0000      -0.090733        -2.4690
 219   0.0000      -0.027179        -0.7396
 220   0.0000      -0.015211        -0.4139
 221   0.0000       0.003412         0.0928
 222   0.0000       0.035751         0.9728

MULLIKEN ATOMIC CHARGES
-----------------------
   0 C :    0.094406
   1 O :   -0.191745
   2 C :    0.103400
   3 C :    0.144707
   4 C :   -0.159419
   5 C :    0.520144
   6 F :   -0.155959
   7 F :   -0.155066
   8 F :   -0.175812
   9 O :   -0.324025
  10 C :    0.187949
  11 C :   -0.094569
  12 C :    0.047154
  13 C :   -0.211937
  14 C :    0.194027
  15 C :    0.180846
  16 C :   -0.175575
  17 S :    0.480054
  18 O :   -0.390216
  19 O :   -0.143227
  20 C :   -0.112552
  21 C :   -0.037676
  22 C :   -0.078975
  23 S :    0.030448
  24 C :   -0.042452
  25 C :   -0.047383
  26 C :   -0.075994
  27 C :    0.149839
  28 C :   -0.087752
  29 C :   -0.240861
  30 N :    0.147775
  31 C :   -0.059129
  32 C :   -0.252667
  33 N :    0.144697
  34 C :    0.127096
  35 C :   -0.168883
  36 C :    0.096300
  37 C :    0.171431
  38 C :   -0.203739
  39 S :    0.410114
  40 O :   -0.383528
  41 O :   -0.152010
  42 C :   -0.064415
  43 C :   -0.128480
  44 C :    0.144897
  45 O :   -0.218143
  46 C :    0.039091
  47 C :    0.169546
  48 C :   -0.175032
  49 C :    0.520318
  50 F :   -0.165428
  51 F :   -0.157308
  52 F :   -0.170301
  53 O :   -0.295401
  54 C :    0.186585
  55 C :   -0.019216
  56 C :    0.002321
  57 H :    0.013405
  58 H :    0.034276
  59 H :    0.027266
  60 H :    0.026766
  61 H :   -0.045441
  62 H :    0.020813
  63 H :    0.021036
  64 H :    0.193571
  65 H :    0.183946
  66 H :    0.018894
  67 H :   -0.036192
  68 H :    0.058187
  69 H :    0.031449
  70 H :    0.052250
  71 H :    0.053016
  72 H :    0.041708
  73 H :    0.045646
  74 H :    0.009671
  75 H :    0.175556
  76 H :    0.187003
  77 H :    0.039369
  78 H :    0.000799
  79 H :    0.034431
  80 H :    0.027761
  81 H :    0.025094
  82 H :   -0.036156
  83 H :    0.022550
  84 H :   -0.004947
Sum of atomic charges:   -0.0000000

LOEWDIN ATOMIC CHARGES
----------------------
   0 C :    0.049733
   1 O :    0.026610
   2 C :   -0.006776
   3 C :    0.011163
   4 C :   -0.159476
   5 C :    0.169911
   6 F :   -0.053392
   7 F :   -0.053968
   8 F :   -0.076347
   9 O :   -0.091640
  10 C :    0.073640
  11 C :   -0.110204
  12 C :   -0.013900
  13 C :   -0.279013
  14 C :   -0.066358
  15 C :    0.091768
  16 C :   -0.270777
  17 S :    0.893164
  18 O :   -0.291874
  19 O :   -0.009187
  20 C :   -0.057297
  21 C :   -0.080122
  22 C :   -0.159372
  23 S :    0.439171
  24 C :   -0.153187
  25 C :   -0.057414
  26 C :   -0.046602
  27 C :   -0.005324
  28 C :   -0.034387
  29 C :   -0.036406
  30 N :   -0.051762
  31 C :   -0.032525
  32 C :   -0.036323
  33 N :   -0.052696
  34 C :   -0.022296
  35 C :   -0.184711
  36 C :   -0.168217
  37 C :    0.083574
  38 C :   -0.346812
  39 S :    0.862144
  40 O :   -0.309684
  41 O :   -0.013697
  42 C :   -0.010259
  43 C :   -0.110200
  44 C :    0.065215
  45 O :    0.017170
  46 C :   -0.022009
  47 C :    0.028277
  48 C :   -0.164244
  49 C :    0.171007
  50 F :   -0.063101
  51 F :   -0.054895
  52 F :   -0.075491
  53 O :   -0.088997
  54 C :    0.080698
  55 C :   -0.042648
  56 C :   -0.057851
  57 H :    0.026411
  58 H :    0.026349
  59 H :    0.011274
  60 H :    0.013746
  61 H :    0.007660
  62 H :    0.035920
  63 H :    0.029275
  64 H :    0.068275
  65 H :    0.090946
  66 H :    0.024485
  67 H :    0.016062
  68 H :    0.047843
  69 H :    0.037763
  70 H :    0.060216
  71 H :    0.061833
  72 H :    0.026401
  73 H :    0.039556
  74 H :    0.022088
  75 H :    0.055707
  76 H :    0.093524
  77 H :    0.021962
  78 H :    0.020955
  79 H :    0.029914
  80 H :    0.015328
  81 H :    0.013162
  82 H :    0.026315
  83 H :    0.018898
  84 H :    0.016331

  Mayer bond orders larger than 0.100000
B(  0-C ,  1-O ) :   1.1724 B(  0-C ,  2-C ) :   0.1012 B(  0-C ,  4-C ) :   1.4922
B(  0-C , 57-H ) :   1.0127 B(  1-O ,  2-C ) :   1.1033 B(  2-C ,  3-C ) :   1.4558
B(  2-C , 11-C ) :   1.1508 B(  3-C ,  4-C ) :   1.2346 B(  3-C ,  9-O ) :   1.1491
B(  4-C ,  5-C ) :   0.9589 B(  5-C ,  6-F ) :   1.1723 B(  5-C ,  7-F ) :   1.1370
B(  5-C ,  8-F ) :   1.1427 B(  9-O , 10-C ) :   0.9262 B( 10-C , 58-H ) :   0.9733
B( 10-C , 59-H ) :   0.9592 B( 10-C , 60-H ) :   0.9626 B( 11-C , 12-C ) :   1.5916
B( 11-C , 61-H ) :   0.9511 B( 12-C , 13-C ) :   1.2408 B( 12-C , 62-H ) :   0.9461
B( 13-C , 14-C ) :   1.2010 B( 13-C , 17-S ) :   1.0617 B( 14-C , 15-C ) :   1.0205
B( 14-C , 20-C ) :   1.4297 B( 15-C , 16-C ) :   1.5835 B( 15-C , 19-O ) :   1.2954
B( 16-C , 17-S ) :   1.0549 B( 16-C , 63-H ) :   0.9696 B( 17-S , 18-O ) :   0.8253
B( 18-O , 64-H ) :   0.9584 B( 19-O , 65-H ) :   0.9574 B( 20-C , 21-C ) :   1.2616
B( 20-C , 66-H ) :   0.9474 B( 21-C , 22-C ) :   1.4797 B( 21-C , 67-H ) :   0.9408
B( 22-C , 23-S ) :   1.0397 B( 22-C , 26-C ) :   1.2413 B( 23-S , 24-C ) :   1.0713
B( 24-C , 25-C ) :   1.2424 B( 24-C , 35-C ) :   1.4733 B( 25-C , 26-C ) :   1.5491
B( 25-C , 34-C ) :   1.0430 B( 26-C , 27-C ) :   1.0303 B( 27-C , 28-C ) :   1.0606
B( 27-C , 68-H ) :   0.9030 B( 27-C , 69-H ) :   0.9131 B( 28-C , 29-C ) :   1.1055
B( 28-C , 31-C ) :   1.0846 B( 28-C , 70-H ) :   0.8611 B( 29-C , 30-N ) :   3.1123
B( 31-C , 32-C ) :   1.1126 B( 31-C , 34-C ) :   1.0550 B( 31-C , 71-H ) :   0.8567
B( 32-C , 33-N ) :   3.1051 B( 34-C , 72-H ) :   0.8920 B( 34-C , 73-H ) :   0.8962
B( 35-C , 36-C ) :   1.2028 B( 35-C , 39-S ) :   1.0075 B( 36-C , 37-C ) :   1.2562
B( 36-C , 42-C ) :   1.0990 B( 37-C , 38-C ) :   1.3391 B( 37-C , 41-O ) :   1.2992
B( 38-C , 39-S ) :   1.2172 B( 38-C , 74-H ) :   0.9732 B( 39-S , 40-O ) :   0.7456
B( 40-O , 75-H ) :   0.9586 B( 41-O , 76-H ) :   0.9421 B( 42-C , 43-C ) :   1.6171
B( 42-C , 77-H ) :   0.9405 B( 43-C , 44-C ) :   1.1904 B( 43-C , 78-H ) :   0.9450
B( 44-C , 45-O ) :   1.1831 B( 44-C , 48-C ) :   1.4458 B( 45-O , 46-C ) :   1.0706
B( 46-C , 47-C ) :   1.3913 B( 46-C , 55-C ) :   1.1340 B( 47-C , 48-C ) :   1.2419
B( 47-C , 53-O ) :   1.2154 B( 48-C , 49-C ) :   0.9384 B( 49-C , 50-F ) :   1.1301
B( 49-C , 51-F ) :   1.1582 B( 49-C , 52-F ) :   1.1913 B( 53-O , 54-C ) :   0.9504
B( 54-C , 79-H ) :   0.9750 B( 54-C , 80-H ) :   0.9665 B( 54-C , 81-H ) :   0.9642
B( 55-C , 56-C ) :   1.9128 B( 55-C , 82-H ) :   0.9505 B( 56-C , 83-H ) :   0.9533
B( 56-C , 84-H ) :   0.9334

-----------------------------------------------------------------------------
         ABSORPTION SPECTRUM VIA TRANSITION ELECTRIC DIPOLE MOMENTS
-----------------------------------------------------------------------------
State   Energy  Wavelength   fosc         T2         TX        TY        TZ
        (cm-1)    (nm)                  (au**2)     (au)      (au)      (au)
-----------------------------------------------------------------------------
   0    6536.1   1530.0   0.239296187  12.05297   1.63810  -1.10352   2.85515
   1   11457.0    872.8   0.087589422   2.51684  -1.48088   0.12471   0.55525
   2   17158.9    582.8   0.203318490   3.90089   1.41729  -0.24175   1.35416
   3   19210.6    520.5   0.027557680   0.47226  -0.02794  -0.08177   0.68175
   4   20115.5    497.1   0.171235965   2.80246  -0.06675  -0.55042  -1.57957
   5   22245.0    449.5   0.024379107   0.36080  -0.02270  -0.56833   0.19310
   6   25059.4    399.1   0.306265443   4.02349  -1.93156  -0.09205  -0.53301
   7   25626.9    390.2   0.218906510   2.81215   1.35638   0.16910  -0.97148
   8   26644.7    375.3   0.579281281   7.15738  -0.36183   0.26192  -2.63778
   9   27903.1    358.4   0.050141787   0.59159  -0.13266   0.10670  -0.75007
  10   30357.8    329.4   0.058893913   0.63867  -0.28185  -0.08601   0.74286
  11   30628.8    326.5   0.013682243   0.14706  -0.29641   0.11050  -0.21678
  12   30783.1    324.9   0.131815801   1.40971  -0.88265   0.25171   0.75318
  13   31263.1    319.9   0.043534958   0.45844   0.65044  -0.16359  -0.09281
  14   31969.1    312.8   0.085904516   0.88463   0.50146   0.02345   0.79537
  15   32503.0    307.7   0.114037595   1.15505   0.82836  -0.06595   0.68155
  16   32767.2    305.2   0.074129052   0.74477  -0.67082  -0.40955  -0.35644
  17   33561.9    298.0   0.080118917   0.78589   0.82851  -0.21288  -0.23269
  18   33942.7    294.6   0.150186998   1.45667   1.20487   0.00872   0.06990
  19   34116.3    293.1   0.088538424   0.85437   0.31060   0.04081  -0.86962
  20   35906.7    278.5   0.087043621   0.79806  -0.53400  -0.12420  -0.70533
  21   36318.0    275.3   0.018813673   0.17054   0.13910  -0.09430  -0.37722
  22   36782.0    271.9   0.076099975   0.68112  -0.74886  -0.31409   0.14725
  23   37050.6    269.9   0.049501558   0.43984  -0.55282  -0.08330   0.35679
  24   37238.0    268.5   0.043912282   0.38822  -0.33728   0.09396   0.51539
  25   37844.8    264.2   0.013341816   0.11606   0.08321   0.07153  -0.32252
  26   38336.0    260.9   0.009905860   0.08507   0.15801  -0.21342  -0.12064
  27   38500.4    259.7   0.026791079   0.22909  -0.22185  -0.20752   0.36987
  28   38643.6    258.8   0.245352752   2.09021  -1.21507  -0.06819   0.78049
  29   39460.4    253.4   0.029007439   0.24200  -0.46732   0.15057   0.03069
  30   39483.1    253.3   0.014439209   0.12039   0.04281  -0.23415  -0.25246
  31   39924.6    250.5   0.006942254   0.05724  -0.13371  -0.11316   0.16297

FINAL SINGLE POINT ENERGY     -3965.870618999787

DIPOLE MOMENT
-------------
                                X             Y             Z
Electronic contribution:    -47.16681      -7.87816      19.24099
Nuclear contribution   :     49.28774       7.97547     -19.51211
                        -----------------------------------------
Total Dipole Moment    :      2.12093       0.09730      -0.27112
                        -----------------------------------------
Magnitude (a.u.)       :      2.14040
Magnitude (Debye)      :      5.44046

Rotational constants in cm-1:     0.001830     0.001139     0.000838
Rotational constants in MHz :    54.874093    34.143848    25.134898

                             ****ORCA TERMINATED NORMALLY****
TOTAL RUN TIME: 0 days 0 hours 9 minutes 57 seconds 804 msec
