                         Program Version 4.2.0 -  RELEASE  -
|  1> # ORCA input file
|  2> # SCF done       -155.449256610635          0.000546802635
|  3> ! CAM-B3LYP def2-SVP def2/J RIJCOSX Grid4 TightSCF
|  4> %maxcore 5000
|  5> %tddft
|  6>     Mode sTDDFT
|  7>     Ethresh 5.0
|  8>     maxcore 5000
|  9> end
| 10>
| 11> %pal
| 12>   nprocs 6
| 13>   end
| 14> * xyz 0 1
| 15>    C       -0.62932         0.42279         2.39636
| 16>    S       -1.17070        -0.39572         1.00129
| 17>    C       -2.41867        -1.24112         1.86899
| 18>    C       -2.39859        -0.87782         3.22137
| 19>    C       -1.36282         0.07781         3.50526
| 20>    C       -1.19260         0.55526         4.83941
| 21>    C       -0.17551         1.49113         5.11411
| 22>    N        0.65384         2.25380         5.33279
| 23>    C       -2.02133         0.09111         5.83191
| 24>    C       -3.02908        -0.84546         5.54311
| 25>    C       -3.22135        -1.32316         4.27567
| 26>    C       -3.24365        -2.14649         1.15262
| 27>    C       -3.09545        -2.47684        -0.18258
| 28>    C       -4.04850        -3.40253        -0.60234
| 29>    C       -4.94961        -3.78940         0.41213
| 30>    S       -4.59885        -2.99127         1.89863
| 31>    C       -5.81952        -4.72234        -0.15056
| 32>    C       -5.42577        -4.88688        -1.49809
| 33>    N       -4.35363        -4.07325        -1.75689
| 34>    C       -6.18858        -5.81782        -2.19965
| 35>    C       -7.17526        -6.37572        -1.40554
| 36>    S       -7.16498        -5.72472         0.23427
| 37>    C       -8.12609        -7.37771        -1.71695
| 38>    C       -8.15478        -8.07516        -2.88328
| 39>    C       -9.05010        -9.11408        -3.21410
| 40>    S       -8.70581       -10.06238        -4.64084
| 41>    C      -10.05621       -11.13683        -4.39398
| 42>    C      -10.74562       -10.73767        -3.26445
| 43>    C      -10.20094        -9.60613        -2.59092
| 44>    C      -10.97985        -9.25032        -1.46525
| 45>    C      -12.04973       -10.07690        -1.28755
| 46>    C      -13.07674       -10.03057        -0.25100
| 47>    O      -14.00081       -10.80326        -0.17092
| 48>    O      -12.87028        -9.02038         0.61278
| 49>    C      -13.82841        -8.90327         1.65382
| 50>    S      -12.17362       -11.34326        -2.48722
| 51>    C      -10.29760       -12.23683        -5.25079
| 52>    C      -11.29999       -13.18140        -5.13532
| 53>    C      -11.20202       -14.15104        -6.13312
| 54>    C      -10.12315       -13.94965        -7.02279
| 55>    S       -9.22553       -12.53617        -6.61500
| 56>    C      -10.14839       -15.00332        -7.93534
| 57>    C      -11.24161       -15.82615        -7.57975
| 58>    N      -11.87284       -15.29036        -6.48854
| 59>    C      -11.38983       -16.94968        -8.39101
| 60>    C      -10.41829       -17.00105        -9.37391
| 61>    S       -9.30831       -15.63316        -9.29933
| 62>    C      -10.20835       -17.98475       -10.37293
| 63>    C      -10.94893       -19.11298       -10.49995
| 64>    C      -10.74196       -20.11487       -11.47781
| 65>    S       -9.49106       -19.97570       -12.67743
| 66>    C       -9.88558       -21.47485       -13.38528
| 67>    C      -10.93970       -22.09304       -12.74697
| 68>    C      -11.44012       -21.31515       -11.64691
| 69>    C      -12.53052       -21.83973       -10.89840
| 70>    C      -13.10611       -21.16598        -9.80087
| 71>    N      -13.62033       -20.67404        -8.89918
| 72>    C      -13.06906       -23.06235       -11.24235
| 73>    C      -12.56479       -23.80813       -12.32203
| 74>    C      -11.52155       -23.34185       -13.06655
| 75>    H        0.19203         1.10835         2.33602
| 76>    H       -1.89576         0.44807         6.84345
| 77>    H       -3.66075        -1.19097         6.34704
| 78>    H       -4.00063        -2.04200         4.08319
| 79>    H       -2.32160        -2.06058        -0.80178
| 80>    H       -3.86818        -3.99364        -2.63309
| 81>    H       -6.04092        -6.07711        -3.23119
| 82>    H       -8.83378        -7.61011        -0.93638
| 83>    H       -7.40192        -7.87126        -3.63233
| 84>    H      -10.79107        -8.41974        -0.81195
| 85>    H      -13.48703        -8.09038         2.28933
| 86>    H      -13.89070        -9.83544         2.21921
| 87>    H      -14.81344        -8.67885         1.23894
| 88>    H      -12.04472       -13.15819        -4.36218
| 89>    H      -12.67576       -15.67469        -6.02193
| 90>    H      -12.15748       -17.69199        -8.27547
| 91>    H       -9.38885       -17.80613       -11.05743
| 92>    H      -11.75891       -19.29142        -9.81078
| 93>    H       -9.33066       -21.83181       -14.22942
| 94>    H      -13.89623       -23.45239       -10.66749
| 95>    H      -13.01897       -24.75975       -12.55268
| 96>    H      -11.12632       -23.90595       -13.89759
| 97> *
| 98>
| 99>                          ****END OF INPUT****

CARTESIAN COORDINATES (ANGSTROEM)
---------------------------------
  C     -0.629320    0.422790    2.396360
  S     -1.170700   -0.395720    1.001290
  C     -2.418670   -1.241120    1.868990
  C     -2.398590   -0.877820    3.221370
  C     -1.362820    0.077810    3.505260
  C     -1.192600    0.555260    4.839410
  C     -0.175510    1.491130    5.114110
  N      0.653840    2.253800    5.332790
  C     -2.021330    0.091110    5.831910
  C     -3.029080   -0.845460    5.543110
  C     -3.221350   -1.323160    4.275670
  C     -3.243650   -2.146490    1.152620
  C     -3.095450   -2.476840   -0.182580
  C     -4.048500   -3.402530   -0.602340
  C     -4.949610   -3.789400    0.412130
  S     -4.598850   -2.991270    1.898630
  C     -5.819520   -4.722340   -0.150560
  C     -5.425770   -4.886880   -1.498090
  N     -4.353630   -4.073250   -1.756890
  C     -6.188580   -5.817820   -2.199650
  C     -7.175260   -6.375720   -1.405540
  S     -7.164980   -5.724720    0.234270
  C     -8.126090   -7.377710   -1.716950
  C     -8.154780   -8.075160   -2.883280
  C     -9.050100   -9.114080   -3.214100
  S     -8.705810  -10.062380   -4.640840
  C    -10.056210  -11.136830   -4.393980
  C    -10.745620  -10.737670   -3.264450
  C    -10.200940   -9.606130   -2.590920
  C    -10.979850   -9.250320   -1.465250
  C    -12.049730  -10.076900   -1.287550
  C    -13.076740  -10.030570   -0.251000
  O    -14.000810  -10.803260   -0.170920
  O    -12.870280   -9.020380    0.612780
  C    -13.828410   -8.903270    1.653820
  S    -12.173620  -11.343260   -2.487220
  C    -10.297600  -12.236830   -5.250790
  C    -11.299990  -13.181400   -5.135320
  C    -11.202020  -14.151040   -6.133120
  C    -10.123150  -13.949650   -7.022790
  S     -9.225530  -12.536170   -6.615000
  C    -10.148390  -15.003320   -7.935340
  C    -11.241610  -15.826150   -7.579750
  N    -11.872840  -15.290360   -6.488540
  C    -11.389830  -16.949680   -8.391010
  C    -10.418290  -17.001050   -9.373910
  S     -9.308310  -15.633160   -9.299330
  C    -10.208350  -17.984750  -10.372930
  C    -10.948930  -19.112980  -10.499950
  C    -10.741960  -20.114870  -11.477810
  S     -9.491060  -19.975700  -12.677430
  C     -9.885580  -21.474850  -13.385280
  C    -10.939700  -22.093040  -12.746970
  C    -11.440120  -21.315150  -11.646910
  C    -12.530520  -21.839730  -10.898400
  C    -13.106110  -21.165980   -9.800870
  N    -13.620330  -20.674040   -8.899180
  C    -13.069060  -23.062350  -11.242350
  C    -12.564790  -23.808130  -12.322030
  C    -11.521550  -23.341850  -13.066550
  H      0.192030    1.108350    2.336020
  H     -1.895760    0.448070    6.843450
  H     -3.660750   -1.190970    6.347040
  H     -4.000630   -2.042000    4.083190
  H     -2.321600   -2.060580   -0.801780
  H     -3.868180   -3.993640   -2.633090
  H     -6.040920   -6.077110   -3.231190
  H     -8.833780   -7.610110   -0.936380
  H     -7.401920   -7.871260   -3.632330
  H    -10.791070   -8.419740   -0.811950
  H    -13.487030   -8.090380    2.289330
  H    -13.890700   -9.835440    2.219210
  H    -14.813440   -8.678850    1.238940
  H    -12.044720  -13.158190   -4.362180
  H    -12.675760  -15.674690   -6.021930
  H    -12.157480  -17.691990   -8.275470
  H     -9.388850  -17.806130  -11.057430
  H    -11.758910  -19.291420   -9.810780
  H     -9.330660  -21.831810  -14.229420
  H    -13.896230  -23.452390  -10.667490
  H    -13.018970  -24.759750  -12.552680
  H    -11.126320  -23.905950  -13.897590

 Total Charge           Charge          ....    0
 Multiplicity           Mult            ....    1
 Number of Electrons    NEL             ....  470
 Basis Dimension        Dim             ....  982

ORBITAL ENERGIES
----------------

  NO   OCC          E(Eh)            E(eV)
   0   2.0000     -88.971807     -2421.0460
   1   2.0000     -88.969360     -2420.9794
   2   2.0000     -88.961293     -2420.7599
   3   2.0000     -88.960357     -2420.7344
   4   2.0000     -88.954179     -2420.5663
   5   2.0000     -88.952991     -2420.5339
   6   2.0000     -88.950583     -2420.4684
   7   2.0000     -88.946804     -2420.3656
   8   2.0000     -19.258183      -524.0418
   9   2.0000     -19.202229      -522.5192
  10   2.0000     -14.466341      -393.6492
  11   2.0000     -14.457560      -393.4102
  12   2.0000     -14.404847      -391.9758
  13   2.0000     -14.398428      -391.8011
  14   2.0000     -10.401369      -283.0356
  15   2.0000     -10.320506      -280.8353
  16   2.0000     -10.315053      -280.6869
  17   2.0000     -10.313297      -280.6391
  18   2.0000     -10.312223      -280.6099
  19   2.0000     -10.311972      -280.6030
  20   2.0000     -10.311274      -280.5840
  21   2.0000     -10.309471      -280.5350
  22   2.0000     -10.308355      -280.5046
  23   2.0000     -10.308074      -280.4970
  24   2.0000     -10.306869      -280.4642
  25   2.0000     -10.306122      -280.4438
  26   2.0000     -10.305027      -280.4140
  27   2.0000     -10.304977      -280.4127
  28   2.0000     -10.303918      -280.3839
  29   2.0000     -10.303258      -280.3659
  30   2.0000     -10.302382      -280.3421
  31   2.0000     -10.299947      -280.2758
  32   2.0000     -10.298586      -280.2388
  33   2.0000     -10.297836      -280.2184
  34   2.0000     -10.296774      -280.1895
  35   2.0000     -10.294993      -280.1410
  36   2.0000     -10.294760      -280.1347
  37   2.0000     -10.294440      -280.1259
  38   2.0000     -10.293985      -280.1136
  39   2.0000     -10.292246      -280.0663
  40   2.0000     -10.292223      -280.0656
  41   2.0000     -10.291275      -280.0398
  42   2.0000     -10.289963      -280.0041
  43   2.0000     -10.289841      -280.0008
  44   2.0000     -10.288780      -279.9719
  45   2.0000     -10.287598      -279.9398
  46   2.0000     -10.287526      -279.9378
  47   2.0000     -10.287418      -279.9349
  48   2.0000     -10.286573      -279.9119
  49   2.0000     -10.285021      -279.8696
  50   2.0000     -10.284781      -279.8631
  51   2.0000     -10.284310      -279.8503
  52   2.0000     -10.283829      -279.8372
  53   2.0000     -10.282058      -279.7890
  54   2.0000     -10.280344      -279.7424
  55   2.0000     -10.279752      -279.7263
  56   2.0000     -10.279332      -279.7148
  57   2.0000     -10.276200      -279.6296
  58   2.0000     -10.274168      -279.5743
  59   2.0000     -10.270411      -279.4721
  60   2.0000      -8.066976      -219.5136
  61   2.0000      -8.064534      -219.4471
  62   2.0000      -8.056458      -219.2274
  63   2.0000      -8.054609      -219.1770
  64   2.0000      -8.049116      -219.0276
  65   2.0000      -8.047780      -218.9912
  66   2.0000      -8.045475      -218.9285
  67   2.0000      -8.041711      -218.8261
  68   2.0000      -6.035995      -164.2478
  69   2.0000      -6.033396      -164.1771
  70   2.0000      -6.031665      -164.1299
  71   2.0000      -6.029953      -164.0834
  72   2.0000      -6.029201      -164.0629
  73   2.0000      -6.027717      -164.0225
  74   2.0000      -6.025800      -163.9704
  75   2.0000      -6.024428      -163.9330
  76   2.0000      -6.021659      -163.8577
  77   2.0000      -6.020257      -163.8195
  78   2.0000      -6.018765      -163.7789
  79   2.0000      -6.018550      -163.7731
  80   2.0000      -6.017593      -163.7470
  81   2.0000      -6.015878      -163.7004
  82   2.0000      -6.015265      -163.6837
  83   2.0000      -6.014721      -163.6689
  84   2.0000      -6.013331      -163.6311
  85   2.0000      -6.011346      -163.5770
  86   2.0000      -6.011161      -163.5720
  87   2.0000      -6.010537      -163.5550
  88   2.0000      -6.009012      -163.5135
  89   2.0000      -6.007336      -163.4679
  90   2.0000      -6.006678      -163.4500
  91   2.0000      -6.003156      -163.3542
  92   2.0000      -1.188796       -32.3488
  93   2.0000      -1.095518       -29.8106
  94   2.0000      -1.086205       -29.5571
  95   2.0000      -1.077706       -29.3259
  96   2.0000      -1.007606       -27.4184
  97   2.0000      -1.006340       -27.3839
  98   2.0000      -1.004944       -27.3459
  99   2.0000      -0.987329       -26.8666
 100   2.0000      -0.983778       -26.7700
 101   2.0000      -0.971792       -26.4438
 102   2.0000      -0.967564       -26.3288
 103   2.0000      -0.967143       -26.3173
 104   2.0000      -0.961714       -26.1696
 105   2.0000      -0.944878       -25.7115
 106   2.0000      -0.940800       -25.6005
 107   2.0000      -0.937884       -25.5211
 108   2.0000      -0.902579       -24.5604
 109   2.0000      -0.897691       -24.4274
 110   2.0000      -0.884682       -24.0734
 111   2.0000      -0.876323       -23.8460
 112   2.0000      -0.870104       -23.6767
 113   2.0000      -0.856191       -23.2981
 114   2.0000      -0.848627       -23.0923
 115   2.0000      -0.841566       -22.9002
 116   2.0000      -0.841320       -22.8935
 117   2.0000      -0.836384       -22.7592
 118   2.0000      -0.833471       -22.6799
 119   2.0000      -0.829722       -22.5779
 120   2.0000      -0.821220       -22.3465
 121   2.0000      -0.816213       -22.2103
 122   2.0000      -0.813258       -22.1299
 123   2.0000      -0.807850       -21.9827
 124   2.0000      -0.800540       -21.7838
 125   2.0000      -0.788791       -21.4641
 126   2.0000      -0.774136       -21.0653
 127   2.0000      -0.752546       -20.4778
 128   2.0000      -0.739679       -20.1277
 129   2.0000      -0.736268       -20.0349
 130   2.0000      -0.730873       -19.8881
 131   2.0000      -0.714588       -19.4449
 132   2.0000      -0.711611       -19.3639
 133   2.0000      -0.698313       -19.0021
 134   2.0000      -0.687038       -18.6953
 135   2.0000      -0.684116       -18.6157
 136   2.0000      -0.677924       -18.4473
 137   2.0000      -0.672898       -18.3105
 138   2.0000      -0.667625       -18.1670
 139   2.0000      -0.661478       -17.9997
 140   2.0000      -0.659934       -17.9577
 141   2.0000      -0.645287       -17.5592
 142   2.0000      -0.638145       -17.3648
 143   2.0000      -0.635065       -17.2810
 144   2.0000      -0.630962       -17.1693
 145   2.0000      -0.626421       -17.0458
 146   2.0000      -0.618463       -16.8292
 147   2.0000      -0.611210       -16.6319
 148   2.0000      -0.610022       -16.5995
 149   2.0000      -0.600649       -16.3445
 150   2.0000      -0.594554       -16.1786
 151   2.0000      -0.584665       -15.9095
 152   2.0000      -0.582879       -15.8609
 153   2.0000      -0.581573       -15.8254
 154   2.0000      -0.574987       -15.6462
 155   2.0000      -0.568897       -15.4805
 156   2.0000      -0.567662       -15.4469
 157   2.0000      -0.566815       -15.4238
 158   2.0000      -0.563522       -15.3342
 159   2.0000      -0.558986       -15.2108
 160   2.0000      -0.552891       -15.0449
 161   2.0000      -0.548597       -14.9281
 162   2.0000      -0.540835       -14.7169
 163   2.0000      -0.536550       -14.6003
 164   2.0000      -0.535003       -14.5582
 165   2.0000      -0.530152       -14.4262
 166   2.0000      -0.528405       -14.3786
 167   2.0000      -0.524163       -14.2632
 168   2.0000      -0.516874       -14.0649
 169   2.0000      -0.514501       -14.0003
 170   2.0000      -0.512022       -13.9328
 171   2.0000      -0.509320       -13.8593
 172   2.0000      -0.509011       -13.8509
 173   2.0000      -0.508128       -13.8269
 174   2.0000      -0.503937       -13.7128
 175   2.0000      -0.497653       -13.5418
 176   2.0000      -0.492909       -13.4127
 177   2.0000      -0.488739       -13.2993
 178   2.0000      -0.485375       -13.2077
 179   2.0000      -0.481131       -13.0922
 180   2.0000      -0.480482       -13.0746
 181   2.0000      -0.474834       -12.9209
 182   2.0000      -0.470008       -12.7896
 183   2.0000      -0.467114       -12.7108
 184   2.0000      -0.465300       -12.6615
 185   2.0000      -0.459895       -12.5144
 186   2.0000      -0.459349       -12.4995
 187   2.0000      -0.458062       -12.4645
 188   2.0000      -0.456163       -12.4128
 189   2.0000      -0.453887       -12.3509
 190   2.0000      -0.453245       -12.3334
 191   2.0000      -0.450785       -12.2665
 192   2.0000      -0.450555       -12.2602
 193   2.0000      -0.448756       -12.2113
 194   2.0000      -0.443936       -12.0801
 195   2.0000      -0.441528       -12.0146
 196   2.0000      -0.434510       -11.8236
 197   2.0000      -0.433500       -11.7961
 198   2.0000      -0.432106       -11.7582
 199   2.0000      -0.430284       -11.7086
 200   2.0000      -0.429235       -11.6801
 201   2.0000      -0.428056       -11.6480
 202   2.0000      -0.423492       -11.5238
 203   2.0000      -0.421929       -11.4813
 204   2.0000      -0.418866       -11.3979
 205   2.0000      -0.418303       -11.3826
 206   2.0000      -0.416069       -11.3218
 207   2.0000      -0.413538       -11.2529
 208   2.0000      -0.411839       -11.2067
 209   2.0000      -0.411762       -11.2046
 210   2.0000      -0.409335       -11.1386
 211   2.0000      -0.402284       -10.9467
 212   2.0000      -0.401981       -10.9384
 213   2.0000      -0.396180       -10.7806
 214   2.0000      -0.392621       -10.6838
 215   2.0000      -0.385506       -10.4902
 216   2.0000      -0.376961       -10.2576
 217   2.0000      -0.374999       -10.2043
 218   2.0000      -0.358913        -9.7665
 219   2.0000      -0.356041        -9.6884
 220   2.0000      -0.350353        -9.5336
 221   2.0000      -0.332013        -9.0345
 222   2.0000      -0.327873        -8.9219
 223   2.0000      -0.324652        -8.8342
 224   2.0000      -0.322988        -8.7890
 225   2.0000      -0.322682        -8.7806
 226   2.0000      -0.321935        -8.7603
 227   2.0000      -0.306921        -8.3517
 228   2.0000      -0.294204        -8.0057
 229   2.0000      -0.281085        -7.6487
 230   2.0000      -0.277853        -7.5608
 231   2.0000      -0.272375        -7.4117
 232   2.0000      -0.251250        -6.8369
 233   2.0000      -0.227063        -6.1787
 234   2.0000      -0.203330        -5.5329
 235   0.0000      -0.073158        -1.9907
 236   0.0000      -0.059752        -1.6259
 237   0.0000      -0.050016        -1.3610
 238   0.0000      -0.019857        -0.5403
 239   0.0000      -0.006586        -0.1792

MULLIKEN ATOMIC CHARGES
-----------------------
   0 C :   -0.132806
   1 S :    0.152219
   2 C :   -0.109270
   3 C :    0.077904
   4 C :    0.111059
   5 C :   -0.074465
   6 C :   -0.192023
   7 N :    0.105549
   8 C :    0.025111
   9 C :    0.012547
  10 C :   -0.011264
  11 C :   -0.055627
  12 C :   -0.116262
  13 C :    0.142800
  14 C :   -0.113910
  15 S :    0.110111
  16 C :   -0.115782
  17 C :    0.117407
  18 N :   -0.017230
  19 C :   -0.071188
  20 C :   -0.081813
  21 S :    0.132150
  22 C :    0.041616
  23 C :    0.052334
  24 C :   -0.119835
  25 S :    0.143963
  26 C :   -0.111929
  27 C :   -0.055905
  28 C :    0.129207
  29 C :   -0.005863
  30 C :   -0.137149
  31 C :    0.206561
  32 O :   -0.202277
  33 O :   -0.305758
  34 C :    0.191980
  35 S :    0.142105
  36 C :   -0.070687
  37 C :   -0.091678
  38 C :    0.114551
  39 C :   -0.116533
  40 S :    0.125582
  41 C :   -0.121290
  42 C :    0.116123
  43 N :   -0.011183
  44 C :   -0.075025
  45 C :   -0.088818
  46 S :    0.128211
  47 C :    0.048472
  48 C :   -0.022611
  49 C :   -0.143512
  50 S :    0.154600
  51 C :   -0.125421
  52 C :    0.072975
  53 C :    0.182071
  54 C :   -0.108999
  55 C :   -0.175729
  56 N :    0.082675
  57 C :    0.016429
  58 C :    0.018596
  59 C :    0.024372
  60 H :    0.034607
  61 H :   -0.007631
  62 H :   -0.007765
  63 H :   -0.006061
  64 H :   -0.017061
  65 H :    0.123837
  66 H :   -0.027390
  67 H :   -0.032157
  68 H :   -0.027436
  69 H :   -0.000005
  70 H :    0.033201
  71 H :    0.034735
  72 H :    0.032281
  73 H :   -0.020598
  74 H :    0.127036
  75 H :   -0.008496
  76 H :   -0.017912
  77 H :    0.001154
  78 H :    0.018730
  79 H :   -0.005491
  80 H :   -0.006466
  81 H :   -0.018558
Sum of atomic charges:   -0.0000000

LOEWDIN ATOMIC CHARGES
----------------------
   0 C :   -0.197218
   1 S :    0.493416
   2 C :   -0.184049
   3 C :   -0.056029
   4 C :   -0.036826
   5 C :   -0.067349
   6 C :   -0.026952
   7 N :   -0.062953
   8 C :    0.015350
   9 C :   -0.032922
  10 C :   -0.000194
  11 C :   -0.177111
  12 C :   -0.083266
  13 C :   -0.016818
  14 C :   -0.223894
  15 S :    0.423403
  16 C :   -0.224455
  17 C :   -0.014707
  18 N :    0.059556
  19 C :   -0.076987
  20 C :   -0.157128
  21 S :    0.410403
  22 C :   -0.044001
  23 C :   -0.045922
  24 C :   -0.164861
  25 S :    0.447580
  26 C :   -0.210408
  27 C :   -0.184328
  28 C :   -0.077852
  29 C :   -0.014413
  30 C :   -0.201316
  31 C :    0.064964
  32 O :   -0.179081
  33 O :   -0.096915
  34 C :    0.082083
  35 S :    0.428308
  36 C :   -0.178959
  37 C :   -0.078969
  38 C :   -0.016569
  39 C :   -0.223199
  40 S :    0.400148
  41 C :   -0.224039
  42 C :   -0.015249
  43 N :    0.062603
  44 C :   -0.068072
  45 C :   -0.162549
  46 S :    0.406773
  47 C :   -0.043204
  48 C :   -0.048655
  49 C :   -0.171823
  50 S :    0.491555
  51 C :   -0.197544
  52 C :   -0.053423
  53 C :   -0.039560
  54 C :   -0.067658
  55 C :   -0.019530
  56 N :   -0.075260
  57 C :    0.015184
  58 C :   -0.035498
  59 C :    0.011681
  60 H :    0.031079
  61 H :    0.039404
  62 H :    0.033149
  63 H :    0.018124
  64 H :    0.024268
  65 H :    0.092578
  66 H :    0.028477
  67 H :    0.025900
  68 H :    0.025688
  69 H :    0.034376
  70 H :    0.025561
  71 H :    0.024003
  72 H :    0.023661
  73 H :    0.021612
  74 H :    0.094505
  75 H :    0.035574
  76 H :    0.019213
  77 H :    0.037470
  78 H :    0.024352
  79 H :    0.039448
  80 H :    0.033025
  81 H :    0.033239

  Mayer bond orders larger than 0.100000
B(  0-C ,  1-S ) :   1.1697 B(  0-C ,  2-C ) :   0.1096 B(  0-C ,  4-C ) :   1.4727
B(  0-C , 60-H ) :   0.9503 B(  1-S ,  2-C ) :   1.1936 B(  2-C ,  3-C ) :   1.3591
B(  2-C , 11-C ) :   1.1787 B(  3-C ,  4-C ) :   1.1802 B(  3-C , 10-C ) :   1.1984
B(  4-C ,  5-C ) :   1.1798 B(  5-C ,  6-C ) :   1.0753 B(  5-C ,  8-C ) :   1.5663
B(  6-C ,  7-N ) :   3.0375 B(  8-C ,  9-C ) :   1.1932 B(  8-C , 61-H ) :   0.9954
B(  9-C , 10-C ) :   1.5548 B(  9-C , 62-H ) :   0.9818 B( 10-C , 63-H ) :   0.9797
B( 11-C , 12-C ) :   1.4607 B( 11-C , 15-S ) :   1.0948 B( 12-C , 13-C ) :   1.2376
B( 12-C , 64-H ) :   1.0045 B( 13-C , 14-C ) :   1.4024 B( 13-C , 18-N ) :   1.1614
B( 14-C , 15-S ) :   1.0318 B( 14-C , 16-C ) :   1.3795 B( 16-C , 17-C ) :   1.3934
B( 16-C , 21-S ) :   1.0348 B( 17-C , 18-N ) :   1.1638 B( 17-C , 19-C ) :   1.2355
B( 18-N , 65-H ) :   0.9355 B( 19-C , 20-C ) :   1.4704 B( 19-C , 66-H ) :   1.0067
B( 20-C , 21-S ) :   1.0875 B( 20-C , 22-C ) :   1.1529 B( 22-C , 23-C ) :   1.6525
B( 22-C , 67-H ) :   0.9581 B( 23-C , 24-C ) :   1.1747 B( 23-C , 68-H ) :   0.9484
B( 24-C , 25-S ) :   1.1217 B( 24-C , 26-C ) :   0.1104 B( 24-C , 28-C ) :   1.3574
B( 25-S , 26-C ) :   1.1183 B( 26-C , 27-C ) :   1.5267 B( 26-C , 36-C ) :   1.1687
B( 27-C , 28-C ) :   1.2524 B( 27-C , 35-S ) :   1.0501 B( 28-C , 29-C ) :   1.1326
B( 29-C , 30-C ) :   1.6146 B( 29-C , 69-H ) :   0.9983 B( 30-C , 31-C ) :   0.9666
B( 30-C , 35-S ) :   1.0663 B( 31-C , 32-O ) :   2.1383 B( 31-C , 33-O ) :   1.2333
B( 33-O , 34-C ) :   0.9228 B( 34-C , 70-H ) :   0.9811 B( 34-C , 71-H ) :   0.9750
B( 34-C , 72-H ) :   0.9772 B( 36-C , 37-C ) :   1.4915 B( 36-C , 40-S ) :   1.0806
B( 37-C , 38-C ) :   1.2382 B( 37-C , 73-H ) :   0.9971 B( 38-C , 39-C ) :   1.4048
B( 38-C , 43-N ) :   1.1685 B( 39-C , 40-S ) :   1.0305 B( 39-C , 41-C ) :   1.3930
B( 41-C , 42-C ) :   1.3941 B( 41-C , 46-S ) :   1.0355 B( 42-C , 43-N ) :   1.1659
B( 42-C , 44-C ) :   1.2251 B( 43-N , 74-H ) :   0.9336 B( 44-C , 45-C ) :   1.4799
B( 44-C , 75-H ) :   1.0080 B( 45-C , 46-S ) :   1.0824 B( 45-C , 47-C ) :   1.1370
B( 47-C , 48-C ) :   1.6627 B( 47-C , 76-H ) :   0.9628 B( 48-C , 49-C ) :   1.1777
B( 48-C , 77-H ) :   0.9567 B( 49-C , 50-S ) :   1.1499 B( 49-C , 51-C ) :   0.1053
B( 49-C , 53-C ) :   1.3624 B( 50-S , 51-C ) :   1.1987 B( 51-C , 52-C ) :   1.4195
B( 51-C , 78-H ) :   0.9697 B( 52-C , 53-C ) :   1.1834 B( 52-C , 59-C ) :   1.1755
B( 53-C , 54-C ) :   1.2009 B( 54-C , 55-C ) :   1.0874 B( 54-C , 57-C ) :   1.5647
B( 55-C , 56-N ) :   2.9828 B( 57-C , 58-C ) :   1.1940 B( 57-C , 79-H ) :   0.9920
B( 58-C , 59-C ) :   1.5445 B( 58-C , 80-H ) :   0.9864 B( 59-C , 81-H ) :   1.0009

-----------------------------------------------------------------------------
         ABSORPTION SPECTRUM VIA TRANSITION ELECTRIC DIPOLE MOMENTS
-----------------------------------------------------------------------------
State   Energy  Wavelength   fosc         T2         TX        TY        TZ
        (cm-1)    (nm)                  (au**2)     (au)      (au)      (au)
-----------------------------------------------------------------------------
   0   15045.2    664.7   2.851585239  62.39721   3.02217   6.03277   4.10724
   1   18972.1    527.1   0.252611795   4.38343  -1.60028   0.86527   1.03627
   2   20797.9    480.8   0.084775207   1.34192   0.60300   0.59835   0.78758
   3   22299.0    448.5   0.067955624   1.00326   0.95357   0.27881  -0.12738
   4   25280.3    395.6   0.185712038   2.41843   0.27461  -1.06860  -1.09596
   5   26155.5    382.3   0.332402992   4.18387  -0.01009   1.51172   1.37785
   6   27451.2    364.3   0.168612735   2.02211  -0.52976  -1.07901  -0.75974
   7   28198.1    354.6   0.066160511   0.77242  -0.01632  -0.70506  -0.52444
   8   29205.8    342.4   0.023142060   0.26086   0.25690   0.08264   0.43363
   9   29925.1    334.2   0.124821079   1.37318   0.86095   0.72877   0.31756
  10   30087.6    332.4   0.093764145   1.02595  -0.60174  -0.25662   0.77331
  11   30875.7    323.9   0.055483653   0.59159   0.43574   0.50971   0.37673
  12   31754.1    314.9   0.037358123   0.38731   0.36896   0.43949   0.24090
  13   32240.0    310.2   0.003044371   0.03109  -0.09345  -0.13735   0.05906
  14   32881.0    304.1   0.001035194   0.01036   0.04550   0.05517  -0.07246
  15   33248.7    300.8   0.000749765   0.00742   0.00776   0.00967   0.08526
  16   33526.4    298.3   0.081823968   0.80347   0.76920   0.30691  -0.34294
  17   34008.1    294.0   0.041593541   0.40264  -0.16193   0.02883   0.61285
  18   34285.3    291.7   0.017185695   0.16502  -0.26858   0.11167   0.28357
  19   34931.8    286.3   0.034429296   0.32448   0.20370  -0.22985  -0.47974
  20   35473.8    281.9   0.076175753   0.70694  -0.05131  -0.57000  -0.61596
  21   36173.2    276.4   0.300651849   2.73623   1.12973   0.05524  -1.20702
  22   36687.1    272.6   0.018378333   0.16492   0.14976  -0.17950  -0.33207
  23   37411.5    267.3   0.007335324   0.06455   0.22665   0.11433  -0.01028
  24   38011.6    263.1   0.015666337   0.13568   0.26209   0.25811  -0.01923
  25   38705.8    258.4   0.057386347   0.48810  -0.41890  -0.55362   0.07825
  26   39130.5    255.6   0.067904617   0.57129   0.01883   0.32990   0.67978
  27   39339.5    254.2   0.201564033   1.68679  -0.09316   0.26912   1.26716
  28   39841.3    251.0   0.044776416   0.36999   0.50026   0.25061  -0.23860

FINAL SINGLE POINT ENERGY     -5317.414827457447

DIPOLE MOMENT
-------------
                                X             Y             Z
Electronic contribution:     14.89120      14.00691      -4.53817
Nuclear contribution   :    -15.19279     -15.57453       2.50472
                        -----------------------------------------
Total Dipole Moment    :     -0.30159      -1.56762      -2.03345
                        -----------------------------------------
Magnitude (a.u.)       :      2.58521
Magnitude (Debye)      :      6.57108

Rotational constants in cm-1:     0.002509     0.000196     0.000184
Rotational constants in MHz :    75.205517     5.883568     5.521089

                             ****ORCA TERMINATED NORMALLY****
TOTAL RUN TIME: 0 days 0 hours 6 minutes 28 seconds 55 msec
