                         Program Version 4.2.0 -  RELEASE  -
|  1> # ORCA input file
|  2> # SCF done       -204.110477277378          0.000375872732
|  3> ! CAM-B3LYP def2-SVP def2/J RIJCOSX Grid4 TightSCF
|  4> %maxcore 5000
|  5> %tddft
|  6>     Mode sTDDFT
|  7>     Ethresh 5.0
|  8>     maxcore 5000
|  9> end
| 10>
| 11> %pal
| 12>   nprocs 6
| 13>   end
| 14> * xyz 0 1
| 15>    C       -3.54603        -1.98725         2.30682
| 16>    C       -4.26549        -1.47587         1.23047
| 17>    C       -5.39653        -0.53263         1.48855
| 18>    C       -3.93667        -1.83866        -0.08567
| 19>    C       -4.70908        -1.28491        -1.23926
| 20>    C       -2.88521        -2.72023        -0.31315
| 21>    C       -2.17734        -3.22186         0.75990
| 22>    C       -2.49633        -2.86173         2.07916
| 23>    C       -1.57536        -3.53512         2.98595
| 24>    C       -1.49879        -3.32521         4.33874
| 25>    C       -2.36091        -2.46612         5.05241
| 26>    N       -3.02989        -1.78920         5.69462
| 27>    C       -0.54436        -3.89161         5.20949
| 28>    N        0.20572        -4.29195         5.98225
| 29>    C       -0.71127        -4.38807         2.18535
| 30>    C       -1.04457        -4.16112         0.75381
| 31>    O       -0.54191        -4.67041        -0.22515
| 32>    C        0.13349        -5.32663         2.70885
| 33>    C        1.09522        -6.14459         2.08201
| 34>    C        1.67233        -6.11022         0.81799
| 35>    C        2.64738        -7.08435         0.66111
| 36>    C        2.82348        -7.88966         1.81214
| 37>    S        1.80131        -7.42116         3.08636
| 38>    C        3.82623        -8.84884         1.55217
| 39>    C        4.29456        -8.64984         0.23547
| 40>    C        3.57714        -7.53339        -0.36179
| 41>    C        3.76666        -7.00899        -1.60588
| 42>    C        4.71226        -7.54423        -2.50730
| 43>    N        5.47645        -7.96963        -3.24889
| 44>    C        3.06161        -5.88326        -2.08510
| 45>    N        2.52491        -4.95808        -2.49696
| 46>    C        5.30653        -9.53197        -0.11261
| 47>    C        5.61564       -10.40410         0.92567
| 48>    S        4.63131       -10.13432         2.35161
| 49>    C        6.62091       -11.40354         0.92733
| 50>    C        6.83058       -12.21508         2.06756
| 51>    C        7.87080       -13.19433         2.12816
| 52>    N        8.02527       -13.93073         3.24137
| 53>    C        7.22006       -13.73933         4.24985
| 54>    C        6.19659       -12.77260         4.19118
| 55>    N        6.02109       -12.04027         3.12591
| 56>    C        8.76741       -13.41310         1.05506
| 57>    C        8.54348       -12.62977        -0.09921
| 58>    C        7.48622       -11.64436        -0.16322
| 59>    N        7.46869       -11.02541        -1.34560
| 60>    S        8.63685       -11.60893        -2.27270
| 61>    N        9.23781       -12.67360        -1.23832
| 62>    C        9.82741       -14.34584         1.17719
| 63>    C       10.81251       -14.62000         0.23473
| 64>    C       11.72581       -15.55529         0.69773
| 65>    C       11.43067       -16.00979         2.00177
| 66>    S       10.02846       -15.27230         2.65340
| 67>    C       12.42655       -16.93879         2.38119
| 68>    C       13.35680       -17.06329         1.32614
| 69>    C       12.93701       -16.20892         0.22988
| 70>    C       13.54778       -16.07410        -0.98246
| 71>    C       14.72476       -16.78707        -1.29376
| 72>    N       15.68666       -17.36606        -1.52823
| 73>    C       13.05257       -15.21830        -1.98857
| 74>    N       12.66024       -14.51773        -2.80701
| 75>    C       14.37880       -17.95883         1.60544
| 76>    C       14.24201       -18.53833         2.85943
| 77>    S       12.82889       -17.92248         3.71074
| 78>    C       15.09096       -19.45896         3.51192
| 79>    C       16.06747       -20.24579         2.98416
| 80>    C       17.11599       -20.79282         3.89886
| 81>    O       17.06721       -20.82276         5.10713
| 82>    C       18.21128       -21.21574         3.01234
| 83>    C       17.81028       -21.08021         1.67089
| 84>    C       18.70223       -21.38013         0.65688
| 85>    C       19.98206       -21.82625         0.97524
| 86>    C       20.37034       -21.97986         2.31618
| 87>    C       19.47553       -21.66694         3.33432
| 88>    C       21.74108       -22.47152         2.65411
| 89>    C       20.94263       -22.14152        -0.12574
| 90>    C       16.42207       -20.63084         1.63357
| 91>    C       15.56895       -20.80316         0.57495
| 92>    C       14.18071       -20.57633         0.64060
| 93>    N       13.04234       -20.42695         0.66000
| 94>    C       15.96717       -21.32359        -0.67451
| 95>    N       16.23778       -21.74973        -1.70497
| 96>    H       -3.82228        -1.69681         3.30767
| 97>    H       -5.51487        -0.35391         2.55362
| 98>    H       -6.32927        -0.93742         1.09704
| 99>    H       -5.21894         0.42128         0.99312
|100>    H       -5.76235        -1.55193        -1.15831
|101>    H       -4.32415        -1.66918        -2.17973
|102>    H       -4.64665        -0.19729        -1.25554
|103>    H       -2.61283        -3.01443        -1.31569
|104>    H        0.06502        -5.49341         3.77789
|105>    H        1.37410        -5.40439         0.06457
|106>    H        5.81973        -9.56844        -1.05580
|107>    H        7.37619       -14.35405         5.12450
|108>    H        5.52326       -12.60212         5.01875
|109>    H       10.83194       -14.13691        -0.72489
|110>    H       15.21397       -18.15328         0.95786
|111>    H       15.01011       -19.49920         4.59414
|112>    H       18.42562       -21.25838        -0.37857
|113>    H       19.75750       -21.77298         4.37120
|114>    H       22.49863       -21.80075         2.24986
|115>    H       21.91180       -23.45731         2.22288
|116>    H       21.87287       -22.53559         3.73067
|117>    H       20.48573       -21.97156        -1.09651
|118>    H       21.26100       -23.18181        -0.06863
|119>    H       21.83414       -21.52025        -0.04534
|120> *
|121>
|122>                          ****END OF INPUT****

CARTESIAN COORDINATES (ANGSTROEM)
---------------------------------
  C     -3.546030   -1.987250    2.306820
  C     -4.265490   -1.475870    1.230470
  C     -5.396530   -0.532630    1.488550
  C     -3.936670   -1.838660   -0.085670
  C     -4.709080   -1.284910   -1.239260
  C     -2.885210   -2.720230   -0.313150
  C     -2.177340   -3.221860    0.759900
  C     -2.496330   -2.861730    2.079160
  C     -1.575360   -3.535120    2.985950
  C     -1.498790   -3.325210    4.338740
  C     -2.360910   -2.466120    5.052410
  N     -3.029890   -1.789200    5.694620
  C     -0.544360   -3.891610    5.209490
  N      0.205720   -4.291950    5.982250
  C     -0.711270   -4.388070    2.185350
  C     -1.044570   -4.161120    0.753810
  O     -0.541910   -4.670410   -0.225150
  C      0.133490   -5.326630    2.708850
  C      1.095220   -6.144590    2.082010
  C      1.672330   -6.110220    0.817990
  C      2.647380   -7.084350    0.661110
  C      2.823480   -7.889660    1.812140
  S      1.801310   -7.421160    3.086360
  C      3.826230   -8.848840    1.552170
  C      4.294560   -8.649840    0.235470
  C      3.577140   -7.533390   -0.361790
  C      3.766660   -7.008990   -1.605880
  C      4.712260   -7.544230   -2.507300
  N      5.476450   -7.969630   -3.248890
  C      3.061610   -5.883260   -2.085100
  N      2.524910   -4.958080   -2.496960
  C      5.306530   -9.531970   -0.112610
  C      5.615640  -10.404100    0.925670
  S      4.631310  -10.134320    2.351610
  C      6.620910  -11.403540    0.927330
  C      6.830580  -12.215080    2.067560
  C      7.870800  -13.194330    2.128160
  N      8.025270  -13.930730    3.241370
  C      7.220060  -13.739330    4.249850
  C      6.196590  -12.772600    4.191180
  N      6.021090  -12.040270    3.125910
  C      8.767410  -13.413100    1.055060
  C      8.543480  -12.629770   -0.099210
  C      7.486220  -11.644360   -0.163220
  N      7.468690  -11.025410   -1.345600
  S      8.636850  -11.608930   -2.272700
  N      9.237810  -12.673600   -1.238320
  C      9.827410  -14.345840    1.177190
  C     10.812510  -14.620000    0.234730
  C     11.725810  -15.555290    0.697730
  C     11.430670  -16.009790    2.001770
  S     10.028460  -15.272300    2.653400
  C     12.426550  -16.938790    2.381190
  C     13.356800  -17.063290    1.326140
  C     12.937010  -16.208920    0.229880
  C     13.547780  -16.074100   -0.982460
  C     14.724760  -16.787070   -1.293760
  N     15.686660  -17.366060   -1.528230
  C     13.052570  -15.218300   -1.988570
  N     12.660240  -14.517730   -2.807010
  C     14.378800  -17.958830    1.605440
  C     14.242010  -18.538330    2.859430
  S     12.828890  -17.922480    3.710740
  C     15.090960  -19.458960    3.511920
  C     16.067470  -20.245790    2.984160
  C     17.115990  -20.792820    3.898860
  O     17.067210  -20.822760    5.107130
  C     18.211280  -21.215740    3.012340
  C     17.810280  -21.080210    1.670890
  C     18.702230  -21.380130    0.656880
  C     19.982060  -21.826250    0.975240
  C     20.370340  -21.979860    2.316180
  C     19.475530  -21.666940    3.334320
  C     21.741080  -22.471520    2.654110
  C     20.942630  -22.141520   -0.125740
  C     16.422070  -20.630840    1.633570
  C     15.568950  -20.803160    0.574950
  C     14.180710  -20.576330    0.640600
  N     13.042340  -20.426950    0.660000
  C     15.967170  -21.323590   -0.674510
  N     16.237780  -21.749730   -1.704970
  H     -3.822280   -1.696810    3.307670
  H     -5.514870   -0.353910    2.553620
  H     -6.329270   -0.937420    1.097040
  H     -5.218940    0.421280    0.993120
  H     -5.762350   -1.551930   -1.158310
  H     -4.324150   -1.669180   -2.179730
  H     -4.646650   -0.197290   -1.255540
  H     -2.612830   -3.014430   -1.315690
  H      0.065020   -5.493410    3.777890
  H      1.374100   -5.404390    0.064570
  H      5.819730   -9.568440   -1.055800
  H      7.376190  -14.354050    5.124500
  H      5.523260  -12.602120    5.018750
  H     10.831940  -14.136910   -0.724890
  H     15.213970  -18.153280    0.957860
  H     15.010110  -19.499200    4.594140
  H     18.425620  -21.258380   -0.378570
  H     19.757500  -21.772980    4.371200
  H     22.498630  -21.800750    2.249860
  H     21.911800  -23.457310    2.222880
  H     21.872870  -22.535590    3.730670
  H     20.485730  -21.971560   -1.096510
  H     21.261000  -23.181810   -0.068630
  H     21.834140  -21.520250   -0.045340

 Total Charge           Charge          ....    0
 Multiplicity           Mult            ....    1
 Number of Electrons    NEL             ....  576
 Basis Dimension        Dim             .... 1274

ORBITAL ENERGIES
----------------

  NO   OCC          E(Eh)            E(eV)
   0   2.0000     -89.049533     -2423.1610
   1   2.0000     -88.992611     -2421.6121
   2   2.0000     -88.990920     -2421.5660
   3   2.0000     -88.985279     -2421.4125
   4   2.0000     -88.984889     -2421.4019
   5   2.0000     -19.214484      -522.8527
   6   2.0000     -19.212946      -522.8108
   7   2.0000     -14.459871      -393.4731
   8   2.0000     -14.459537      -393.4640
   9   2.0000     -14.457512      -393.4089
  10   2.0000     -14.456961      -393.3939
  11   2.0000     -14.429528      -392.6474
  12   2.0000     -14.427829      -392.6012
  13   2.0000     -14.427124      -392.5820
  14   2.0000     -14.424520      -392.5111
  15   2.0000     -14.414866      -392.2484
  16   2.0000     -14.414157      -392.2291
  17   2.0000     -14.410601      -392.1324
  18   2.0000     -14.410156      -392.1203
  19   2.0000     -10.365572      -282.0616
  20   2.0000     -10.363879      -282.0155
  21   2.0000     -10.362816      -281.9866
  22   2.0000     -10.362062      -281.9660
  23   2.0000     -10.353356      -281.7291
  24   2.0000     -10.352905      -281.7169
  25   2.0000     -10.350366      -281.6478
  26   2.0000     -10.349051      -281.6120
  27   2.0000     -10.348462      -281.5960
  28   2.0000     -10.348213      -281.5892
  29   2.0000     -10.347518      -281.5703
  30   2.0000     -10.347155      -281.5604
  31   2.0000     -10.340931      -281.3910
  32   2.0000     -10.340468      -281.3784
  33   2.0000     -10.339630      -281.3556
  34   2.0000     -10.338791      -281.3328
  35   2.0000     -10.338317      -281.3199
  36   2.0000     -10.337501      -281.2977
  37   2.0000     -10.330016      -281.0940
  38   2.0000     -10.328106      -281.0421
  39   2.0000     -10.327354      -281.0216
  40   2.0000     -10.326902      -281.0093
  41   2.0000     -10.325970      -280.9839
  42   2.0000     -10.325558      -280.9727
  43   2.0000     -10.324812      -280.9524
  44   2.0000     -10.324522      -280.9445
  45   2.0000     -10.324049      -280.9317
  46   2.0000     -10.323827      -280.9256
  47   2.0000     -10.323253      -280.9100
  48   2.0000     -10.323048      -280.9044
  49   2.0000     -10.322055      -280.8774
  50   2.0000     -10.321058      -280.8503
  51   2.0000     -10.317440      -280.7518
  52   2.0000     -10.316146      -280.7166
  53   2.0000     -10.314012      -280.6585
  54   2.0000     -10.312735      -280.6238
  55   2.0000     -10.309149      -280.5262
  56   2.0000     -10.305117      -280.4165
  57   2.0000     -10.304258      -280.3931
  58   2.0000     -10.302547      -280.3466
  59   2.0000     -10.302453      -280.3440
  60   2.0000     -10.301599      -280.3208
  61   2.0000     -10.299608      -280.2666
  62   2.0000     -10.297483      -280.2088
  63   2.0000     -10.297470      -280.2084
  64   2.0000     -10.297296      -280.2037
  65   2.0000     -10.297228      -280.2018
  66   2.0000     -10.296155      -280.1726
  67   2.0000     -10.295045      -280.1424
  68   2.0000     -10.294686      -280.1326
  69   2.0000     -10.293938      -280.1123
  70   2.0000     -10.293550      -280.1017
  71   2.0000     -10.287719      -279.9431
  72   2.0000     -10.286626      -279.9133
  73   2.0000     -10.285764      -279.8899
  74   2.0000     -10.285627      -279.8861
  75   2.0000     -10.285528      -279.8834
  76   2.0000     -10.283412      -279.8259
  77   2.0000     -10.275687      -279.6156
  78   2.0000     -10.274530      -279.5842
  79   2.0000     -10.273022      -279.5432
  80   2.0000     -10.272925      -279.5405
  81   2.0000      -8.140603      -221.5171
  82   2.0000      -8.087432      -220.0702
  83   2.0000      -8.085841      -220.0269
  84   2.0000      -8.077623      -219.8033
  85   2.0000      -8.077242      -219.7929
  86   2.0000      -6.111662      -166.3068
  87   2.0000      -6.103702      -166.0902
  88   2.0000      -6.103573      -166.0867
  89   2.0000      -6.056552      -164.8072
  90   2.0000      -6.054907      -164.7624
  91   2.0000      -6.052422      -164.6948
  92   2.0000      -6.050813      -164.6510
  93   2.0000      -6.049943      -164.6273
  94   2.0000      -6.048383      -164.5849
  95   2.0000      -6.047237      -164.5537
  96   2.0000      -6.046861      -164.5434
  97   2.0000      -6.042343      -164.4205
  98   2.0000      -6.041981      -164.4106
  99   2.0000      -6.040080      -164.3589
 100   2.0000      -6.039669      -164.3477
 101   2.0000      -1.146754       -31.2048
 102   2.0000      -1.129754       -30.7422
 103   2.0000      -1.128035       -30.6954
 104   2.0000      -1.116816       -30.3901
 105   2.0000      -1.047481       -28.5034
 106   2.0000      -1.043826       -28.4039
 107   2.0000      -1.040232       -28.3061
 108   2.0000      -1.020511       -27.7695
 109   2.0000      -1.018208       -27.7068
 110   2.0000      -1.015876       -27.6434
 111   2.0000      -1.015262       -27.6267
 112   2.0000      -1.006292       -27.3826
 113   2.0000      -1.004096       -27.3228
 114   2.0000      -1.002846       -27.2888
 115   2.0000      -1.001127       -27.2420
 116   2.0000      -0.994414       -27.0594
 117   2.0000      -0.993914       -27.0458
 118   2.0000      -0.992346       -27.0031
 119   2.0000      -0.990199       -26.9447
 120   2.0000      -0.988965       -26.9111
 121   2.0000      -0.977996       -26.6126
 122   2.0000      -0.959468       -26.1085
 123   2.0000      -0.955079       -25.9890
 124   2.0000      -0.951973       -25.9045
 125   2.0000      -0.950674       -25.8692
 126   2.0000      -0.921286       -25.0695
 127   2.0000      -0.915745       -24.9187
 128   2.0000      -0.902751       -24.5651
 129   2.0000      -0.901345       -24.5269
 130   2.0000      -0.896171       -24.3861
 131   2.0000      -0.894990       -24.3539
 132   2.0000      -0.886065       -24.1110
 133   2.0000      -0.879128       -23.9223
 134   2.0000      -0.869928       -23.6719
 135   2.0000      -0.868877       -23.6433
 136   2.0000      -0.866481       -23.5782
 137   2.0000      -0.860806       -23.4237
 138   2.0000      -0.854334       -23.2476
 139   2.0000      -0.853034       -23.2122
 140   2.0000      -0.836606       -22.7652
 141   2.0000      -0.829992       -22.5852
 142   2.0000      -0.817539       -22.2464
 143   2.0000      -0.806949       -21.9582
 144   2.0000      -0.806063       -21.9341
 145   2.0000      -0.799439       -21.7538
 146   2.0000      -0.786471       -21.4010
 147   2.0000      -0.779486       -21.2109
 148   2.0000      -0.776340       -21.1253
 149   2.0000      -0.768307       -20.9067
 150   2.0000      -0.759926       -20.6786
 151   2.0000      -0.752994       -20.4900
 152   2.0000      -0.748648       -20.3718
 153   2.0000      -0.739430       -20.1209
 154   2.0000      -0.731462       -19.9041
 155   2.0000      -0.719882       -19.5890
 156   2.0000      -0.708546       -19.2805
 157   2.0000      -0.705818       -19.2063
 158   2.0000      -0.702486       -19.1156
 159   2.0000      -0.693595       -18.8737
 160   2.0000      -0.686999       -18.6942
 161   2.0000      -0.685422       -18.6513
 162   2.0000      -0.683363       -18.5952
 163   2.0000      -0.680285       -18.5115
 164   2.0000      -0.676506       -18.4087
 165   2.0000      -0.672300       -18.2942
 166   2.0000      -0.671192       -18.2641
 167   2.0000      -0.656619       -17.8675
 168   2.0000      -0.656161       -17.8551
 169   2.0000      -0.651530       -17.7290
 170   2.0000      -0.643140       -17.5007
 171   2.0000      -0.638941       -17.3865
 172   2.0000      -0.631238       -17.1768
 173   2.0000      -0.627807       -17.0835
 174   2.0000      -0.624790       -17.0014
 175   2.0000      -0.616056       -16.7637
 176   2.0000      -0.612713       -16.6728
 177   2.0000      -0.609103       -16.5745
 178   2.0000      -0.605093       -16.4654
 179   2.0000      -0.599927       -16.3248
 180   2.0000      -0.597051       -16.2466
 181   2.0000      -0.587133       -15.9767
 182   2.0000      -0.583198       -15.8696
 183   2.0000      -0.579413       -15.7666
 184   2.0000      -0.576520       -15.6879
 185   2.0000      -0.574336       -15.6285
 186   2.0000      -0.570751       -15.5309
 187   2.0000      -0.566793       -15.4232
 188   2.0000      -0.554522       -15.0893
 189   2.0000      -0.550872       -14.9900
 190   2.0000      -0.548771       -14.9328
 191   2.0000      -0.546729       -14.8773
 192   2.0000      -0.545491       -14.8436
 193   2.0000      -0.544475       -14.8159
 194   2.0000      -0.543643       -14.7933
 195   2.0000      -0.538475       -14.6527
 196   2.0000      -0.538245       -14.6464
 197   2.0000      -0.534401       -14.5418
 198   2.0000      -0.531893       -14.4735
 199   2.0000      -0.524146       -14.2627
 200   2.0000      -0.523366       -14.2415
 201   2.0000      -0.522632       -14.2215
 202   2.0000      -0.521844       -14.2001
 203   2.0000      -0.520237       -14.1564
 204   2.0000      -0.518226       -14.1016
 205   2.0000      -0.515650       -14.0315
 206   2.0000      -0.511131       -13.9086
 207   2.0000      -0.506948       -13.7948
 208   2.0000      -0.504952       -13.7404
 209   2.0000      -0.503360       -13.6971
 210   2.0000      -0.501104       -13.6357
 211   2.0000      -0.498035       -13.5522
 212   2.0000      -0.495957       -13.4957
 213   2.0000      -0.493991       -13.4422
 214   2.0000      -0.493631       -13.4324
 215   2.0000      -0.490197       -13.3389
 216   2.0000      -0.488468       -13.2919
 217   2.0000      -0.487589       -13.2680
 218   2.0000      -0.487114       -13.2550
 219   2.0000      -0.486199       -13.2301
 220   2.0000      -0.484611       -13.1869
 221   2.0000      -0.483539       -13.1578
 222   2.0000      -0.478562       -13.0223
 223   2.0000      -0.475509       -12.9392
 224   2.0000      -0.474517       -12.9123
 225   2.0000      -0.473502       -12.8846
 226   2.0000      -0.471907       -12.8412
 227   2.0000      -0.470898       -12.8138
 228   2.0000      -0.467680       -12.7262
 229   2.0000      -0.462873       -12.5954
 230   2.0000      -0.461739       -12.5645
 231   2.0000      -0.459885       -12.5141
 232   2.0000      -0.457657       -12.4535
 233   2.0000      -0.456984       -12.4352
 234   2.0000      -0.455637       -12.3985
 235   2.0000      -0.452288       -12.3074
 236   2.0000      -0.450837       -12.2679
 237   2.0000      -0.447769       -12.1844
 238   2.0000      -0.447284       -12.1712
 239   2.0000      -0.446719       -12.1559
 240   2.0000      -0.444511       -12.0958
 241   2.0000      -0.443629       -12.0718
 242   2.0000      -0.442800       -12.0492
 243   2.0000      -0.441508       -12.0140
 244   2.0000      -0.441225       -12.0063
 245   2.0000      -0.439361       -11.9556
 246   2.0000      -0.438710       -11.9379
 247   2.0000      -0.438247       -11.9253
 248   2.0000      -0.437246       -11.8981
 249   2.0000      -0.436715       -11.8836
 250   2.0000      -0.435589       -11.8530
 251   2.0000      -0.435292       -11.8449
 252   2.0000      -0.434115       -11.8129
 253   2.0000      -0.431795       -11.7497
 254   2.0000      -0.425936       -11.5903
 255   2.0000      -0.424262       -11.5448
 256   2.0000      -0.423834       -11.5331
 257   2.0000      -0.422646       -11.5008
 258   2.0000      -0.421195       -11.4613
 259   2.0000      -0.418694       -11.3932
 260   2.0000      -0.416376       -11.3302
 261   2.0000      -0.415431       -11.3045
 262   2.0000      -0.413846       -11.2613
 263   2.0000      -0.406241       -11.0544
 264   2.0000      -0.404698       -11.0124
 265   2.0000      -0.401766       -10.9326
 266   2.0000      -0.401639       -10.9291
 267   2.0000      -0.385560       -10.4916
 268   2.0000      -0.382973       -10.4212
 269   2.0000      -0.382252       -10.4016
 270   2.0000      -0.376293       -10.2394
 271   2.0000      -0.358248        -9.7484
 272   2.0000      -0.355496        -9.6735
 273   2.0000      -0.347474        -9.4552
 274   2.0000      -0.345837        -9.4107
 275   2.0000      -0.343246        -9.3402
 276   2.0000      -0.341398        -9.2899
 277   2.0000      -0.335485        -9.1290
 278   2.0000      -0.334273        -9.0960
 279   2.0000      -0.331626        -9.0240
 280   2.0000      -0.328648        -8.9430
 281   2.0000      -0.320366        -8.7176
 282   2.0000      -0.319234        -8.6868
 283   2.0000      -0.308465        -8.3938
 284   2.0000      -0.305298        -8.3076
 285   2.0000      -0.299344        -8.1456
 286   2.0000      -0.273753        -7.4492
 287   2.0000      -0.240451        -6.5430
 288   0.0000      -0.132107        -3.5948
 289   0.0000      -0.104074        -2.8320
 290   0.0000      -0.096538        -2.6269
 291   0.0000      -0.081190        -2.2093
 292   0.0000      -0.081145        -2.2081

MULLIKEN ATOMIC CHARGES
-----------------------
   0 C :   -0.077104
   1 C :   -0.078855
   2 C :    0.114165
   3 C :   -0.077654
   4 C :    0.115179
   5 C :   -0.074883
   6 C :   -0.011745
   7 C :    0.040403
   8 C :    0.305887
   9 C :   -0.354705
  10 C :   -0.180497
  11 N :    0.145715
  12 C :   -0.199106
  13 N :    0.151494
  14 C :   -0.090061
  15 C :    0.151964
  16 O :   -0.148950
  17 C :    0.026222
  18 C :   -0.110477
  19 C :    0.006774
  20 C :   -0.014733
  21 C :   -0.087318
  22 S :    0.200167
  23 C :   -0.070632
  24 C :    0.039726
  25 C :    0.315420
  26 C :   -0.302803
  27 C :   -0.190648
  28 N :    0.170442
  29 C :   -0.193897
  30 N :    0.191162
  31 C :   -0.067475
  32 C :   -0.169834
  33 S :    0.201479
  34 C :    0.171374
  35 C :   -0.046220
  36 C :   -0.046774
  37 N :   -0.080255
  38 C :    0.046864
  39 C :    0.047290
  40 N :   -0.080105
  41 C :    0.175683
  42 C :   -0.006261
  43 C :   -0.003959
  44 N :   -0.286803
  45 S :    0.583381
  46 N :   -0.286427
  47 C :   -0.174909
  48 C :   -0.063660
  49 C :    0.039355
  50 C :   -0.068013
  51 S :    0.201254
  52 C :   -0.080270
  53 C :   -0.007161
  54 C :    0.313121
  55 C :   -0.292922
  56 C :   -0.186987
  57 N :    0.167683
  58 C :   -0.187037
  59 N :    0.172825
  60 C :   -0.002222
  61 C :   -0.107676
  62 S :    0.208058
  63 C :    0.080048
  64 C :   -0.137426
  65 C :    0.134470
  66 O :   -0.146601
  67 C :    0.013273
  68 C :    0.022866
  69 C :   -0.079056
  70 C :   -0.080220
  71 C :   -0.077727
  72 C :   -0.085079
  73 C :    0.117952
  74 C :    0.118012
  75 C :    0.265976
  76 C :   -0.331248
  77 C :   -0.202823
  78 N :    0.164528
  79 C :   -0.169344
  80 N :    0.161440
  81 H :   -0.014694
  82 H :    0.025379
  83 H :    0.026521
  84 H :    0.026610
  85 H :    0.027693
  86 H :    0.017723
  87 H :    0.029563
  88 H :   -0.015480
  89 H :    0.013729
  90 H :    0.036259
  91 H :    0.021012
  92 H :    0.024919
  93 H :    0.025971
  94 H :    0.020187
  95 H :    0.023941
  96 H :    0.018284
  97 H :   -0.004121
  98 H :   -0.017940
  99 H :    0.027734
 100 H :    0.027794
 101 H :    0.016743
 102 H :    0.025141
 103 H :    0.027266
 104 H :    0.026678
Sum of atomic charges:   -0.0000000

LOEWDIN ATOMIC CHARGES
----------------------
   0 C :   -0.005622
   1 C :   -0.003946
   2 C :   -0.042127
   3 C :   -0.005930
   4 C :   -0.042806
   5 C :    0.008600
   6 C :   -0.046937
   7 C :   -0.019485
   8 C :    0.078744
   9 C :   -0.145137
  10 C :   -0.017423
  11 N :   -0.057152
  12 C :   -0.024162
  13 N :   -0.057140
  14 C :   -0.095442
  15 C :    0.085655
  16 O :   -0.137239
  17 C :    0.037833
  18 C :   -0.176514
  19 C :    0.017769
  20 C :   -0.072986
  21 C :   -0.158811
  22 S :    0.490140
  23 C :   -0.194349
  24 C :   -0.061285
  25 C :    0.076859
  26 C :   -0.097591
  27 C :   -0.015495
  28 N :   -0.033259
  29 C :   -0.022065
  30 N :   -0.020947
  31 C :   -0.014984
  32 C :   -0.155600
  33 S :    0.507822
  34 C :   -0.044625
  35 C :   -0.015218
  36 C :   -0.017234
  37 N :   -0.045208
  38 C :    0.021911
  39 C :    0.023662
  40 N :   -0.046057
  41 C :   -0.039085
  42 C :   -0.039000
  43 C :   -0.037624
  44 N :   -0.275550
  45 S :    0.703163
  46 N :   -0.274752
  47 C :   -0.160002
  48 C :   -0.010197
  49 C :   -0.065684
  50 C :   -0.186312
  51 S :    0.509451
  52 C :   -0.160686
  53 C :   -0.063148
  54 C :    0.082721
  55 C :   -0.100628
  56 C :   -0.013099
  57 N :   -0.035611
  58 C :   -0.016803
  59 N :   -0.031295
  60 C :    0.006621
  61 C :   -0.178998
  62 S :    0.494532
  63 C :    0.036096
  64 C :   -0.087997
  65 C :    0.084112
  66 O :   -0.145393
  67 C :   -0.050932
  68 C :   -0.014296
  69 C :   -0.005109
  70 C :   -0.001733
  71 C :   -0.007880
  72 C :    0.007261
  73 C :   -0.042768
  74 C :   -0.041318
  75 C :    0.066842
  76 C :   -0.137583
  77 C :   -0.016102
  78 N :   -0.047662
  79 C :   -0.018380
  80 N :   -0.047759
  81 H :    0.035707
  82 H :    0.035829
  83 H :    0.037647
  84 H :    0.038042
  85 H :    0.038282
  86 H :    0.033488
  87 H :    0.038874
  88 H :    0.036876
  89 H :    0.042344
  90 H :    0.043969
  91 H :    0.038189
  92 H :    0.032600
  93 H :    0.032984
  94 H :    0.038607
  95 H :    0.042166
  96 H :    0.044714
  97 H :    0.037828
  98 H :    0.035848
  99 H :    0.038322
 100 H :    0.038402
 101 H :    0.032876
 102 H :    0.036355
 103 H :    0.038609
 104 H :    0.037814

  Mayer bond orders larger than 0.100000
B(  0-C ,  1-C ) :   1.3765 B(  0-C ,  7-C ) :   1.3479 B(  0-C , 81-H ) :   0.9847
B(  1-C ,  2-C ) :   1.0937 B(  1-C ,  3-C ) :   1.3753 B(  2-C , 82-H ) :   0.9508
B(  2-C , 83-H ) :   0.9407 B(  2-C , 84-H ) :   0.9398 B(  3-C ,  4-C ) :   1.0928
B(  3-C ,  5-C ) :   1.3491 B(  4-C , 85-H ) :   0.9405 B(  4-C , 86-H ) :   0.9518
B(  4-C , 87-H ) :   0.9404 B(  5-C ,  6-C ) :   1.3605 B(  5-C , 88-H ) :   1.0112
B(  6-C ,  7-C ) :   1.3340 B(  6-C , 15-C ) :   0.9534 B(  7-C ,  8-C ) :   0.9867
B(  8-C ,  9-C ) :   1.6232 B(  8-C , 14-C ) :   1.0771 B(  9-C , 10-C ) :   1.1464
B(  9-C , 12-C ) :   1.1392 B( 10-C , 11-N ) :   2.9683 B( 12-C , 13-N ) :   2.9839
B( 14-C , 15-C ) :   0.9351 B( 14-C , 17-C ) :   1.6026 B( 15-C , 16-O ) :   2.1833
B( 17-C , 18-C ) :   1.2071 B( 17-C , 89-H ) :   0.9175 B( 18-C , 19-C ) :   1.3993
B( 18-C , 22-S ) :   1.0751 B( 19-C , 20-C ) :   1.3254 B( 19-C , 90-H ) :   0.9723
B( 20-C , 21-C ) :   1.3723 B( 20-C , 25-C ) :   0.9944 B( 21-C , 22-S ) :   1.1603
B( 21-C , 23-C ) :   1.2139 B( 23-C , 24-C ) :   1.4019 B( 23-C , 33-S ) :   1.0630
B( 24-C , 25-C ) :   0.9912 B( 24-C , 31-C ) :   1.2792 B( 25-C , 26-C ) :   1.7101
B( 26-C , 27-C ) :   1.1426 B( 26-C , 29-C ) :   1.1344 B( 27-C , 28-N ) :   2.9836
B( 29-C , 30-N ) :   2.9978 B( 31-C , 32-C ) :   1.4140 B( 31-C , 91-H ) :   0.9819
B( 32-C , 33-S ) :   1.0997 B( 32-C , 34-C ) :   1.1971 B( 34-C , 35-C ) :   1.2705
B( 34-C , 41-C ) :   0.1348 B( 34-C , 43-C ) :   1.2034 B( 35-C , 36-C ) :   1.1381
B( 35-C , 40-N ) :   1.3976 B( 36-C , 37-N ) :   1.3984 B( 36-C , 41-C ) :   1.2672
B( 37-N , 38-C ) :   1.6533 B( 38-C , 39-C ) :   1.2032 B( 38-C , 92-H ) :   0.9742
B( 39-C , 40-N ) :   1.6543 B( 39-C , 93-H ) :   0.9742 B( 41-C , 42-C ) :   1.2022
B( 41-C , 47-C ) :   1.2021 B( 42-C , 43-C ) :   1.1011 B( 42-C , 46-N ) :   1.5051
B( 43-C , 44-N ) :   1.5052 B( 44-N , 45-S ) :   1.2867 B( 44-N , 46-N ) :   0.1508
B( 45-S , 46-N ) :   1.2885 B( 47-C , 48-C ) :   1.4134 B( 47-C , 51-S ) :   1.0944
B( 48-C , 49-C ) :   1.2798 B( 48-C , 94-H ) :   0.9827 B( 49-C , 50-C ) :   1.4031
B( 49-C , 54-C ) :   0.9902 B( 50-C , 51-S ) :   1.0710 B( 50-C , 52-C ) :   1.2061
B( 52-C , 53-C ) :   1.4015 B( 52-C , 62-S ) :   1.1475 B( 53-C , 54-C ) :   0.9968
B( 53-C , 60-C ) :   1.3616 B( 54-C , 55-C ) :   1.7111 B( 55-C , 56-C ) :   1.1337
B( 55-C , 58-C ) :   1.1384 B( 56-C , 57-N ) :   2.9824 B( 58-C , 59-N ) :   2.9870
B( 60-C , 61-C ) :   1.3936 B( 60-C , 95-H ) :   0.9784 B( 61-C , 62-S ) :   1.0907
B( 61-C , 63-C ) :   1.1349 B( 63-C , 64-C ) :   1.6847 B( 63-C , 96-H ) :   0.9265
B( 64-C , 65-C ) :   0.9368 B( 64-C , 75-C ) :   1.0297 B( 65-C , 66-O ) :   2.2610
B( 65-C , 67-C ) :   0.9249 B( 67-C , 68-C ) :   1.3340 B( 67-C , 72-C ) :   1.3578
B( 68-C , 69-C ) :   1.3542 B( 68-C , 75-C ) :   0.9973 B( 69-C , 70-C ) :   1.3716
B( 69-C , 97-H ) :   0.9890 B( 70-C , 71-C ) :   1.3746 B( 70-C , 74-C ) :   1.0943
B( 71-C , 72-C ) :   1.3547 B( 71-C , 73-C ) :   1.0945 B( 72-C , 98-H ) :   1.0112
B( 73-C , 99-H ) :   0.9398 B( 73-C ,100-H ) :   0.9404 B( 73-C ,101-H ) :   0.9516
B( 74-C ,102-H ) :   0.9512 B( 74-C ,103-H ) :   0.9390 B( 74-C ,104-H ) :   0.9403
B( 75-C , 76-C ) :   1.6524 B( 76-C , 77-C ) :   1.1682 B( 76-C , 79-C ) :   1.1290
B( 77-C , 78-N ) :   2.9988 B( 79-C , 80-N ) :   2.9955

-----------------------------------------------------------------------------
         ABSORPTION SPECTRUM VIA TRANSITION ELECTRIC DIPOLE MOMENTS
-----------------------------------------------------------------------------
State   Energy  Wavelength   fosc         T2         TX        TY        TZ
        (cm-1)    (nm)                  (au**2)     (au)      (au)      (au)
-----------------------------------------------------------------------------
   0    8950.8   1117.2   1.093656509  40.22467   4.62160  -4.34336   0.02671
   1   13340.4    749.6   0.007530921   0.18585   0.21250  -0.19974  -0.31748
   2   14405.6    694.2   0.000929513   0.02124   0.07137  -0.03955   0.12077
   3   17476.3    572.2   0.004060629   0.07649   0.01496   0.06532   0.26833
   4   20289.3    492.9   0.720028961  11.68311   2.31446  -2.51172  -0.13294
   5   21139.9    473.0   0.579882649   9.03053  -2.16229   1.89637   0.87111
   6   22514.4    444.2   0.163964443   2.39753  -0.96888   1.08519   0.53024
   7   23763.8    420.8   0.001268682   0.01758  -0.10438  -0.01933  -0.07942
   8   24406.8    409.7   0.042904075   0.57871   0.63899  -0.28884  -0.29493
   9   24770.1    403.7   0.053790352   0.71491   0.50909  -0.65120   0.17797
  10   25696.0    389.2   0.031281533   0.40077  -0.07324  -0.20537   0.59433
  11   25803.5    387.5   0.011599621   0.14799  -0.00465  -0.15197   0.35338
  12   26206.6    381.6   0.018298645   0.22987  -0.44857  -0.06344   0.15693
  13   26480.8    377.6   0.053172006   0.66104   0.52374  -0.60288   0.15255
  14   26853.5    372.4   0.100027887   1.22630   0.76132  -0.46414   0.65671
  15   27469.7    364.0   0.047895537   0.57401  -0.43533   0.33836  -0.51962
  16   27628.2    361.9   0.306596161   3.65333   1.45761  -1.03406   0.67779
  17   28122.3    355.6   0.001351184   0.01582  -0.03708  -0.06878   0.09855
  18   29354.1    340.7   0.020330041   0.22801  -0.00497  -0.47588  -0.03901
  19   29610.4    337.7   0.014715022   0.16360   0.33616  -0.22486  -0.00606
  20   29725.4    336.4   0.027343781   0.30283  -0.28529  -0.06692  -0.46580
  21   30025.7    333.0   0.115222445   1.26334  -0.10096  -0.55525   0.97203
  22   30372.9    329.2   0.046208093   0.50085   0.49308  -0.34038  -0.37665
  23   30559.0    327.2   0.113805680   1.22603  -0.82966   0.71881   0.14492
  24   30966.4    322.9   0.136099995   1.44692  -0.86728   0.23487   0.79973
  25   31071.2    321.8   0.232883870   2.46750  -1.32230   0.45309   0.71675
  26   31396.9    318.5   0.298654305   3.13153  -0.94068   1.20247  -0.89482
  27   31523.9    317.2   0.003009435   0.03143  -0.14213   0.10035  -0.03404
  28   31904.6    313.4   0.276540862   2.85352   0.93370  -1.35599   0.37816
  29   32099.3    311.5   0.142076836   1.45715   1.17330  -0.21103   0.18971
  30   32252.3    310.1   0.271415164   2.77044   0.79834  -0.20237  -1.44642
  31   32354.9    309.1   0.033148195   0.33728  -0.04446   0.28340  -0.50497
  32   32480.8    307.9   0.214077978   2.16980   0.36904   0.34530  -1.38361
  33   32830.8    304.6   0.069307878   0.69499  -0.71499   0.17448  -0.39159
  34   32885.5    304.1   0.187983427   1.88187   1.18267  -0.60987   0.33351
  35   32961.3    303.4   0.060218504   0.60145  -0.03867  -0.11565   0.76589
  36   33110.8    302.0   0.060454641   0.60109  -0.03147  -0.51410   0.57948
  37   33325.5    300.1   0.035421069   0.34991  -0.29828  -0.15202  -0.48768
  38   33507.8    298.4   0.003368995   0.03310   0.04777  -0.06787  -0.16190
  39   33752.1    296.3   0.002851496   0.02781   0.03268   0.13061  -0.09842
  40   34058.0    293.6   0.017140538   0.16568   0.18867  -0.13322  -0.33517
  41   34455.4    290.2   0.038946821   0.37213   0.23348  -0.11244   0.55224
  42   34884.5    286.7   0.029105996   0.27468   0.37023  -0.05204  -0.36729
  43   35094.8    284.9   0.021208601   0.19895   0.07395   0.10373  -0.42746
  44   35399.3    282.5   0.198052656   1.84188   0.94406   0.27064  -0.93668
  45   35517.2    281.6   0.269753193   2.50037  -0.72593   0.98801  -0.99861
  46   35730.0    279.9   0.394547539   3.63531   0.29232  -0.49287   1.81850
  47   35789.7    279.4   0.405183104   3.72708  -0.31166  -0.33663   1.87527
  48   36031.2    277.5   0.056803603   0.51901   0.57625  -0.08861   0.42319
  49   36057.4    277.3   0.377861026   3.44996   1.45766  -0.49655   1.03857
  50   36099.3    277.0   0.012820269   0.11692  -0.08809  -0.27694   0.18017
  51   36200.6    276.2   0.026870431   0.24436   0.38011   0.01754   0.31555
  52   36229.4    276.0   0.093064380   0.84567  -0.53525  -0.05325  -0.74588
  53   36536.6    273.7   0.100655631   0.90695  -0.91371   0.26787   0.01837
  54   36961.4    270.6   0.054792613   0.48803   0.52443  -0.44754  -0.11274
  55   37290.3    268.2   0.024363668   0.21509  -0.26778   0.27448  -0.26086
  56   37788.4    264.6   0.299159332   2.60627   0.18958  -0.09333  -1.60051
  57   37839.9    264.3   0.072159236   0.62779   0.71256  -0.01855  -0.34599
  58   37879.9    264.0   0.021569012   0.18746   0.31654  -0.26842   0.12332
  59   37899.2    263.9   0.105370360   0.91530   0.15223  -0.20516   0.92198
  60   37957.1    263.5   0.003923770   0.03403  -0.05694  -0.11164   0.13537
  61   38243.7    261.5   0.021458173   0.18472   0.14366  -0.26293   0.30813
  62   38314.6    261.0   0.121970359   1.04801  -0.01837   0.18675   1.00638
  63   38784.3    257.8   0.018060293   0.15330   0.16944  -0.35288  -0.00816
  64   38892.9    257.1   0.047865815   0.40516   0.37228  -0.38731  -0.34142
  65   39013.9    256.3   0.004961895   0.04187   0.08560  -0.03110   0.18324
  66   39159.0    255.4   0.003851099   0.03238   0.08469   0.04918   0.15095
  67   39502.2    253.2   0.024095261   0.20081   0.20939  -0.32726  -0.22330
  68   39665.2    252.1   0.000310834   0.00258   0.03744  -0.03071  -0.01532
  69   39846.9    251.0   0.000749924   0.00620  -0.03071   0.00033   0.07248

FINAL SINGLE POINT ENERGY     -5170.632120238372

DIPOLE MOMENT
-------------
                                X             Y             Z
Electronic contribution:     -3.39821      -5.90268       1.73905
Nuclear contribution   :      3.62092       5.11651      -0.00312
                        -----------------------------------------
Total Dipole Moment    :      0.22270      -0.78617       1.73592
                        -----------------------------------------
Magnitude (a.u.)       :      1.91862
Magnitude (Debye)      :      4.87673

Rotational constants in cm-1:     0.002771     0.000157     0.000150
Rotational constants in MHz :    83.077150     4.705517     4.507309

                             ****ORCA TERMINATED NORMALLY****
TOTAL RUN TIME: 0 days 0 hours 12 minutes 30 seconds 129 msec
