                         Program Version 4.2.0 -  RELEASE  -
|  1> # ORCA input file
|  2> # SCF done       -196.387550195351          0.000686502319
|  3> ! CAM-B3LYP def2-SVP def2/J RIJCOSX Grid4 TightSCF
|  4> %maxcore 5000
|  5> %tddft
|  6>     Mode sTDDFT
|  7>     Ethresh 5.0
|  8>     maxcore 5000
|  9> end
| 10>
| 11> %pal
| 12>   nprocs 6
| 13>   end
| 14> * xyz 0 1
| 15>    C       -3.78483         3.43457         3.60717
| 16>    C       -2.74152         2.53190         3.31915
| 17>    C       -1.43976         2.84913         3.79155
| 18>    C       -1.24142         3.99847         4.58513
| 19>    C       -2.29984         4.83154         4.87936
| 20>    C       -3.56879         4.55343         4.37075
| 21>    C        0.09849         4.33248         5.10313
| 22>    O        0.30284         5.30205         5.80470
| 23>    N        1.12557         3.47532         4.74874
| 24>    C        2.46343         3.76871         5.23439
| 25>    C        1.00566         2.34483         3.95802
| 26>    O        1.98070         1.66787         3.70465
| 27>    C       -0.34241         2.02921         3.46047
| 28>    C       -0.52924         0.92349         2.65584
| 29>    C       -1.80111         0.58739         2.20876
| 30>    C       -2.91288         1.34744         2.54137
| 31>    C       -4.20686         0.87114         2.09445
| 32>    C       -4.46860         0.24656         0.89464
| 33>    C       -5.79082        -0.19945         0.80334
| 34>    C       -6.53661         0.07455         1.96121
| 35>    S       -5.61677         0.89000         3.14389
| 36>    C       -7.85138        -0.42703         1.79106
| 37>    C       -7.93330        -1.02513         0.51786
| 38>    C       -6.64535        -0.89026        -0.14792
| 39>    C       -6.30907        -1.31457        -1.39931
| 40>    C       -7.22662        -1.95767        -2.25795
| 41>    N       -7.95994        -2.47210        -2.97318
| 42>    C       -5.01276        -1.12946        -1.92501
| 43>    N       -3.95752        -0.98270        -2.34917
| 44>    C       -9.18095        -1.57982         0.26204
| 45>    C      -10.05817        -1.40638         1.32539
| 46>    S       -9.31721        -0.52680         2.65777
| 47>    C      -11.40358        -1.84996         1.45366
| 48>    C      -12.07770        -2.66277         0.51108
| 49>    C      -13.43078        -3.09562         0.72636
| 50>    N      -14.03228        -3.87680        -0.19393
| 51>    C      -13.38894        -4.23365        -1.25693
| 52>    C      -12.04922        -3.81345        -1.46543
| 53>    N      -11.43882        -3.06151        -0.60915
| 54>    F      -11.38192        -4.18787        -2.55015
| 55>    F      -14.01960        -5.00299        -2.13831
| 56>    C      -14.18617        -2.75247         1.87013
| 57>    C      -13.52030        -1.92923         2.80706
| 58>    C      -12.16099        -1.50047         2.59493
| 59>    N      -11.72111        -0.74380         3.60127
| 60>    S      -12.88601        -0.58340         4.69581
| 61>    N      -14.00348        -1.46136         3.95901
| 62>    C      -15.51080        -3.22476         2.06322
| 63>    C      -16.34016        -2.94425         3.14284
| 64>    C      -17.56417        -3.58972         3.04023
| 65>    C      -17.67296        -4.37128         1.87164
| 66>    S      -16.26909        -4.29907         0.90035
| 67>    C      -18.94596        -4.99517         1.87931
| 68>    C      -19.63676        -4.61149         3.04059
| 69>    C      -18.79328        -3.71139         3.80833
| 70>    C      -19.09007        -3.11058         4.99676
| 71>    C      -20.32784        -3.31217         5.64233
| 72>    N      -21.33775        -3.48101         6.15917
| 73>    C      -18.18405        -2.25307         5.65573
| 74>    N      -17.45530        -1.55475         6.19976
| 75>    C      -20.90183        -5.19587         3.13896
| 76>    C      -21.18369        -6.02049         2.07019
| 77>    S      -19.85650        -6.06847         0.91721
| 78>    C      -22.37710        -6.79842         1.83602
| 79>    C      -22.50614        -7.57206         0.66596
| 80>    C      -23.62616        -8.32508         0.42321
| 81>    C      -24.67620        -8.33955         1.34711
| 82>    C      -24.57023        -7.57146         2.52656
| 83>    C      -23.42115        -6.81160         2.75294
| 84>    C      -25.65820        -7.61124         3.44617
| 85>    C      -26.76329        -8.36317         3.20100
| 86>    C      -26.89584        -9.17133         1.98073
| 87>    O      -27.83937        -9.86788         1.68300
| 88>    N      -25.80093        -9.07938         1.13682
| 89>    C      -27.83278        -8.39241         4.12442
| 90>    N      -28.68533        -8.39871         4.88956
| 91>    H       -4.76922         3.25907         3.20301
| 92>    H       -2.12088         5.70444         5.48848
| 93>    H       -4.38410         5.23026         4.57562
| 94>    H        2.41584         4.67766         5.82853
| 95>    H        3.13807         3.90066         4.38875
| 96>    H        2.82354         2.93671         5.83926
| 97>    H        0.32480         0.31463         2.40121
| 98>    H       -1.93138        -0.30649         1.61820
| 99>    H       -3.73655         0.15027         0.11365
|100>    H       -9.46645        -2.09186        -0.63718
|101>    H      -16.03176        -2.30191         3.94674
|102>    H      -21.57770        -5.02312         3.95539
|103>    H      -21.70238        -7.56997        -0.05524
|104>    H      -23.70515        -8.91150        -0.47997
|105>    H      -23.36243        -6.23496         3.66204
|106>    H      -25.59168        -7.02801         4.35437
|107>    H      -25.86776        -9.62833         0.28665
|108> *
|109>
|110>                          ****END OF INPUT****

CARTESIAN COORDINATES (ANGSTROEM)
---------------------------------
  C     -3.784830    3.434570    3.607170
  C     -2.741520    2.531900    3.319150
  C     -1.439760    2.849130    3.791550
  C     -1.241420    3.998470    4.585130
  C     -2.299840    4.831540    4.879360
  C     -3.568790    4.553430    4.370750
  C      0.098490    4.332480    5.103130
  O      0.302840    5.302050    5.804700
  N      1.125570    3.475320    4.748740
  C      2.463430    3.768710    5.234390
  C      1.005660    2.344830    3.958020
  O      1.980700    1.667870    3.704650
  C     -0.342410    2.029210    3.460470
  C     -0.529240    0.923490    2.655840
  C     -1.801110    0.587390    2.208760
  C     -2.912880    1.347440    2.541370
  C     -4.206860    0.871140    2.094450
  C     -4.468600    0.246560    0.894640
  C     -5.790820   -0.199450    0.803340
  C     -6.536610    0.074550    1.961210
  S     -5.616770    0.890000    3.143890
  C     -7.851380   -0.427030    1.791060
  C     -7.933300   -1.025130    0.517860
  C     -6.645350   -0.890260   -0.147920
  C     -6.309070   -1.314570   -1.399310
  C     -7.226620   -1.957670   -2.257950
  N     -7.959940   -2.472100   -2.973180
  C     -5.012760   -1.129460   -1.925010
  N     -3.957520   -0.982700   -2.349170
  C     -9.180950   -1.579820    0.262040
  C    -10.058170   -1.406380    1.325390
  S     -9.317210   -0.526800    2.657770
  C    -11.403580   -1.849960    1.453660
  C    -12.077700   -2.662770    0.511080
  C    -13.430780   -3.095620    0.726360
  N    -14.032280   -3.876800   -0.193930
  C    -13.388940   -4.233650   -1.256930
  C    -12.049220   -3.813450   -1.465430
  N    -11.438820   -3.061510   -0.609150
  F    -11.381920   -4.187870   -2.550150
  F    -14.019600   -5.002990   -2.138310
  C    -14.186170   -2.752470    1.870130
  C    -13.520300   -1.929230    2.807060
  C    -12.160990   -1.500470    2.594930
  N    -11.721110   -0.743800    3.601270
  S    -12.886010   -0.583400    4.695810
  N    -14.003480   -1.461360    3.959010
  C    -15.510800   -3.224760    2.063220
  C    -16.340160   -2.944250    3.142840
  C    -17.564170   -3.589720    3.040230
  C    -17.672960   -4.371280    1.871640
  S    -16.269090   -4.299070    0.900350
  C    -18.945960   -4.995170    1.879310
  C    -19.636760   -4.611490    3.040590
  C    -18.793280   -3.711390    3.808330
  C    -19.090070   -3.110580    4.996760
  C    -20.327840   -3.312170    5.642330
  N    -21.337750   -3.481010    6.159170
  C    -18.184050   -2.253070    5.655730
  N    -17.455300   -1.554750    6.199760
  C    -20.901830   -5.195870    3.138960
  C    -21.183690   -6.020490    2.070190
  S    -19.856500   -6.068470    0.917210
  C    -22.377100   -6.798420    1.836020
  C    -22.506140   -7.572060    0.665960
  C    -23.626160   -8.325080    0.423210
  C    -24.676200   -8.339550    1.347110
  C    -24.570230   -7.571460    2.526560
  C    -23.421150   -6.811600    2.752940
  C    -25.658200   -7.611240    3.446170
  C    -26.763290   -8.363170    3.201000
  C    -26.895840   -9.171330    1.980730
  O    -27.839370   -9.867880    1.683000
  N    -25.800930   -9.079380    1.136820
  C    -27.832780   -8.392410    4.124420
  N    -28.685330   -8.398710    4.889560
  H     -4.769220    3.259070    3.203010
  H     -2.120880    5.704440    5.488480
  H     -4.384100    5.230260    4.575620
  H      2.415840    4.677660    5.828530
  H      3.138070    3.900660    4.388750
  H      2.823540    2.936710    5.839260
  H      0.324800    0.314630    2.401210
  H     -1.931380   -0.306490    1.618200
  H     -3.736550    0.150270    0.113650
  H     -9.466450   -2.091860   -0.637180
  H    -16.031760   -2.301910    3.946740
  H    -21.577700   -5.023120    3.955390
  H    -21.702380   -7.569970   -0.055240
  H    -23.705150   -8.911500   -0.479970
  H    -23.362430   -6.234960    3.662040
  H    -25.591680   -7.028010    4.354370
  H    -25.867760   -9.628330    0.286650

 Total Charge           Charge          ....    0
 Multiplicity           Mult            ....    1
 Number of Electrons    NEL             ....  546
 Basis Dimension        Dim             .... 1169

ORBITAL ENERGIES
----------------

  NO   OCC          E(Eh)            E(eV)
   0   2.0000     -89.055294     -2423.3178
   1   2.0000     -88.994862     -2421.6733
   2   2.0000     -88.994626     -2421.6669
   3   2.0000     -88.987950     -2421.4852
   4   2.0000     -88.986745     -2421.4524
   5   2.0000     -24.829631      -675.6486
   6   2.0000     -24.822740      -675.4611
   7   2.0000     -19.197129      -522.3804
   8   2.0000     -19.196679      -522.3682
   9   2.0000     -19.196153      -522.3539
  10   2.0000     -14.480251      -394.0277
  11   2.0000     -14.470644      -393.7663
  12   2.0000     -14.465046      -393.6139
  13   2.0000     -14.464015      -393.5859
  14   2.0000     -14.463769      -393.5792
  15   2.0000     -14.457633      -393.4122
  16   2.0000     -14.434166      -392.7736
  17   2.0000     -14.432351      -392.7242
  18   2.0000     -14.431389      -392.6981
  19   2.0000     -14.429650      -392.6507
  20   2.0000     -14.404011      -391.9531
  21   2.0000     -10.445510      -284.2368
  22   2.0000     -10.441958      -284.1401
  23   2.0000     -10.397309      -282.9251
  24   2.0000     -10.386999      -282.6446
  25   2.0000     -10.384612      -282.5797
  26   2.0000     -10.366592      -282.0893
  27   2.0000     -10.364853      -282.0420
  28   2.0000     -10.358225      -281.8616
  29   2.0000     -10.356517      -281.8152
  30   2.0000     -10.355850      -281.7970
  31   2.0000     -10.354289      -281.7545
  32   2.0000     -10.352451      -281.7045
  33   2.0000     -10.352160      -281.6966
  34   2.0000     -10.351052      -281.6664
  35   2.0000     -10.335209      -281.2353
  36   2.0000     -10.334923      -281.2275
  37   2.0000     -10.334727      -281.2222
  38   2.0000     -10.332836      -281.1708
  39   2.0000     -10.331836      -281.1435
  40   2.0000     -10.330661      -281.1116
  41   2.0000     -10.329922      -281.0915
  42   2.0000     -10.329798      -281.0881
  43   2.0000     -10.328133      -281.0428
  44   2.0000     -10.328021      -281.0397
  45   2.0000     -10.327988      -281.0388
  46   2.0000     -10.327665      -281.0301
  47   2.0000     -10.327212      -281.0177
  48   2.0000     -10.327000      -281.0119
  49   2.0000     -10.326881      -281.0087
  50   2.0000     -10.326262      -280.9919
  51   2.0000     -10.315400      -280.6963
  52   2.0000     -10.313503      -280.6447
  53   2.0000     -10.312389      -280.6144
  54   2.0000     -10.311394      -280.5873
  55   2.0000     -10.309187      -280.5272
  56   2.0000     -10.307545      -280.4826
  57   2.0000     -10.306090      -280.4430
  58   2.0000     -10.305877      -280.4372
  59   2.0000     -10.304877      -280.4100
  60   2.0000     -10.304863      -280.4096
  61   2.0000     -10.304096      -280.3887
  62   2.0000     -10.303918      -280.3839
  63   2.0000     -10.303900      -280.3834
  64   2.0000     -10.301100      -280.3072
  65   2.0000     -10.300734      -280.2972
  66   2.0000     -10.298904      -280.2474
  67   2.0000     -10.297651      -280.2133
  68   2.0000     -10.296685      -280.1870
  69   2.0000     -10.294194      -280.1193
  70   2.0000     -10.294001      -280.1140
  71   2.0000     -10.293504      -280.1005
  72   2.0000     -10.293117      -280.0899
  73   2.0000     -10.292331      -280.0686
  74   2.0000     -10.290112      -280.0082
  75   2.0000     -10.290046      -280.0064
  76   2.0000      -8.146148      -221.6680
  77   2.0000      -8.089257      -220.1199
  78   2.0000      -8.088940      -220.1112
  79   2.0000      -8.080588      -219.8840
  80   2.0000      -8.079934      -219.8662
  81   2.0000      -6.117249      -166.4588
  82   2.0000      -6.109480      -166.2474
  83   2.0000      -6.108942      -166.2328
  84   2.0000      -6.058449      -164.8588
  85   2.0000      -6.058132      -164.8502
  86   2.0000      -6.054295      -164.7457
  87   2.0000      -6.053916      -164.7354
  88   2.0000      -6.051805      -164.6780
  89   2.0000      -6.051483      -164.6692
  90   2.0000      -6.050080      -164.6310
  91   2.0000      -6.049352      -164.6112
  92   2.0000      -6.045335      -164.5019
  93   2.0000      -6.044743      -164.4858
  94   2.0000      -6.043120      -164.4417
  95   2.0000      -6.042387      -164.4217
  96   2.0000      -1.355631       -36.8886
  97   2.0000      -1.340348       -36.4727
  98   2.0000      -1.152821       -31.3698
  99   2.0000      -1.148932       -31.2640
 100   2.0000      -1.145168       -31.1616
 101   2.0000      -1.127075       -30.6693
 102   2.0000      -1.124959       -30.6117
 103   2.0000      -1.067568       -29.0500
 104   2.0000      -1.053738       -28.6737
 105   2.0000      -1.045893       -28.4602
 106   2.0000      -1.044849       -28.4318
 107   2.0000      -1.026837       -27.9417
 108   2.0000      -1.024818       -27.8867
 109   2.0000      -1.022683       -27.8286
 110   2.0000      -1.012761       -27.5586
 111   2.0000      -1.010912       -27.5083
 112   2.0000      -1.008109       -27.4320
 113   2.0000      -1.005942       -27.3731
 114   2.0000      -1.000140       -27.2152
 115   2.0000      -0.991729       -26.9863
 116   2.0000      -0.990194       -26.9445
 117   2.0000      -0.983341       -26.7581
 118   2.0000      -0.974791       -26.5254
 119   2.0000      -0.959482       -26.1088
 120   2.0000      -0.955738       -26.0069
 121   2.0000      -0.940115       -25.5818
 122   2.0000      -0.939570       -25.5670
 123   2.0000      -0.922073       -25.0909
 124   2.0000      -0.915775       -24.9195
 125   2.0000      -0.902149       -24.5487
 126   2.0000      -0.897987       -24.4355
 127   2.0000      -0.888398       -24.1745
 128   2.0000      -0.879509       -23.9327
 129   2.0000      -0.873277       -23.7631
 130   2.0000      -0.869982       -23.6734
 131   2.0000      -0.861202       -23.4345
 132   2.0000      -0.856213       -23.2987
 133   2.0000      -0.854849       -23.2616
 134   2.0000      -0.850583       -23.1455
 135   2.0000      -0.845318       -23.0023
 136   2.0000      -0.828100       -22.5337
 137   2.0000      -0.815485       -22.1905
 138   2.0000      -0.806577       -21.9481
 139   2.0000      -0.794599       -21.6222
 140   2.0000      -0.784165       -21.3382
 141   2.0000      -0.782050       -21.2807
 142   2.0000      -0.776334       -21.1251
 143   2.0000      -0.773016       -21.0348
 144   2.0000      -0.768930       -20.9236
 145   2.0000      -0.758246       -20.6329
 146   2.0000      -0.757729       -20.6189
 147   2.0000      -0.750806       -20.4305
 148   2.0000      -0.735697       -20.0193
 149   2.0000      -0.725915       -19.7532
 150   2.0000      -0.721464       -19.6320
 151   2.0000      -0.717319       -19.5192
 152   2.0000      -0.706265       -19.2184
 153   2.0000      -0.701171       -19.0798
 154   2.0000      -0.696610       -18.9557
 155   2.0000      -0.693322       -18.8663
 156   2.0000      -0.689550       -18.7636
 157   2.0000      -0.685512       -18.6537
 158   2.0000      -0.679513       -18.4905
 159   2.0000      -0.676309       -18.4033
 160   2.0000      -0.669288       -18.2122
 161   2.0000      -0.665616       -18.1123
 162   2.0000      -0.660596       -17.9757
 163   2.0000      -0.651329       -17.7236
 164   2.0000      -0.646959       -17.6047
 165   2.0000      -0.640123       -17.4186
 166   2.0000      -0.636277       -17.3140
 167   2.0000      -0.630642       -17.1606
 168   2.0000      -0.630229       -17.1494
 169   2.0000      -0.624385       -16.9904
 170   2.0000      -0.617820       -16.8117
 171   2.0000      -0.615879       -16.7589
 172   2.0000      -0.612779       -16.6746
 173   2.0000      -0.608216       -16.5504
 174   2.0000      -0.606970       -16.5165
 175   2.0000      -0.604427       -16.4473
 176   2.0000      -0.593812       -16.1585
 177   2.0000      -0.588520       -16.0144
 178   2.0000      -0.581800       -15.8316
 179   2.0000      -0.581476       -15.8228
 180   2.0000      -0.578840       -15.7510
 181   2.0000      -0.575011       -15.6468
 182   2.0000      -0.569929       -15.5086
 183   2.0000      -0.565417       -15.3858
 184   2.0000      -0.561165       -15.2701
 185   2.0000      -0.559855       -15.2344
 186   2.0000      -0.558518       -15.1980
 187   2.0000      -0.557270       -15.1641
 188   2.0000      -0.553211       -15.0536
 189   2.0000      -0.549370       -14.9491
 190   2.0000      -0.545778       -14.8514
 191   2.0000      -0.541408       -14.7325
 192   2.0000      -0.537406       -14.6236
 193   2.0000      -0.534256       -14.5379
 194   2.0000      -0.532757       -14.4970
 195   2.0000      -0.528666       -14.3857
 196   2.0000      -0.527636       -14.3577
 197   2.0000      -0.523285       -14.2393
 198   2.0000      -0.522820       -14.2267
 199   2.0000      -0.521988       -14.2040
 200   2.0000      -0.515811       -14.0359
 201   2.0000      -0.511841       -13.9279
 202   2.0000      -0.510115       -13.8809
 203   2.0000      -0.509742       -13.8708
 204   2.0000      -0.506238       -13.7754
 205   2.0000      -0.505486       -13.7550
 206   2.0000      -0.500620       -13.6226
 207   2.0000      -0.499672       -13.5968
 208   2.0000      -0.498895       -13.5756
 209   2.0000      -0.497376       -13.5343
 210   2.0000      -0.495858       -13.4930
 211   2.0000      -0.493415       -13.4265
 212   2.0000      -0.490863       -13.3571
 213   2.0000      -0.490016       -13.3340
 214   2.0000      -0.488040       -13.2802
 215   2.0000      -0.483715       -13.1626
 216   2.0000      -0.481961       -13.1148
 217   2.0000      -0.479158       -13.0386
 218   2.0000      -0.476417       -12.9640
 219   2.0000      -0.476034       -12.9535
 220   2.0000      -0.470289       -12.7972
 221   2.0000      -0.465326       -12.6622
 222   2.0000      -0.464985       -12.6529
 223   2.0000      -0.463895       -12.6232
 224   2.0000      -0.463515       -12.6129
 225   2.0000      -0.461970       -12.5708
 226   2.0000      -0.461040       -12.5455
 227   2.0000      -0.459283       -12.4977
 228   2.0000      -0.458221       -12.4688
 229   2.0000      -0.457738       -12.4557
 230   2.0000      -0.455618       -12.3980
 231   2.0000      -0.448810       -12.2127
 232   2.0000      -0.444836       -12.1046
 233   2.0000      -0.443674       -12.0730
 234   2.0000      -0.442838       -12.0502
 235   2.0000      -0.442067       -12.0293
 236   2.0000      -0.441045       -12.0015
 237   2.0000      -0.440707       -11.9923
 238   2.0000      -0.439485       -11.9590
 239   2.0000      -0.435164       -11.8414
 240   2.0000      -0.432439       -11.7673
 241   2.0000      -0.430029       -11.7017
 242   2.0000      -0.429942       -11.6993
 243   2.0000      -0.427544       -11.6341
 244   2.0000      -0.423642       -11.5279
 245   2.0000      -0.421594       -11.4722
 246   2.0000      -0.414393       -11.2762
 247   2.0000      -0.410048       -11.1580
 248   2.0000      -0.407291       -11.0830
 249   2.0000      -0.406714       -11.0673
 250   2.0000      -0.406069       -11.0497
 251   2.0000      -0.400006       -10.8847
 252   2.0000      -0.388188       -10.5631
 253   2.0000      -0.380471       -10.3531
 254   2.0000      -0.377992       -10.2857
 255   2.0000      -0.375083       -10.2065
 256   2.0000      -0.366687        -9.9781
 257   2.0000      -0.358031        -9.7425
 258   2.0000      -0.354755        -9.6534
 259   2.0000      -0.352629        -9.5955
 260   2.0000      -0.351080        -9.5534
 261   2.0000      -0.348335        -9.4787
 262   2.0000      -0.341846        -9.3021
 263   2.0000      -0.340141        -9.2557
 264   2.0000      -0.338375        -9.2077
 265   2.0000      -0.332630        -9.0513
 266   2.0000      -0.327422        -8.9096
 267   2.0000      -0.324454        -8.8289
 268   2.0000      -0.322298        -8.7702
 269   2.0000      -0.312387        -8.5005
 270   2.0000      -0.295134        -8.0310
 271   2.0000      -0.273114        -7.4318
 272   2.0000      -0.241644        -6.5755
 273   0.0000      -0.128373        -3.4932
 274   0.0000      -0.104503        -2.8437
 275   0.0000      -0.099349        -2.7034
 276   0.0000      -0.068633        -1.8676
 277   0.0000      -0.060295        -1.6407

MULLIKEN ATOMIC CHARGES
-----------------------
   0 C :   -0.047872
   1 C :    0.074197
   2 C :    0.147397
   3 C :   -0.074220
   4 C :   -0.007840
   5 C :    0.044647
   6 C :    0.156048
   7 O :   -0.195786
   8 N :   -0.274879
   9 C :    0.141378
  10 C :    0.146112
  11 O :   -0.196383
  12 C :   -0.052989
  13 C :   -0.011062
  14 C :   -0.026912
  15 C :    0.112592
  16 C :   -0.139762
  17 C :   -0.014796
  18 C :    0.005670
  19 C :   -0.110202
  20 S :    0.195130
  21 C :   -0.071785
  22 C :    0.040962
  23 C :    0.307638
  24 C :   -0.305550
  25 C :   -0.188984
  26 N :    0.179297
  27 C :   -0.189810
  28 N :    0.170829
  29 C :   -0.064610
  30 C :   -0.183514
  31 S :    0.203211
  32 C :    0.201694
  33 C :   -0.070717
  34 C :   -0.062434
  35 N :   -0.057224
  36 C :    0.154031
  37 C :    0.147898
  38 N :    0.007202
  39 F :   -0.128430
  40 F :   -0.134788
  41 C :    0.177724
  42 C :   -0.004209
  43 C :   -0.027677
  44 N :   -0.341272
  45 S :    0.570050
  46 N :   -0.281654
  47 C :   -0.179939
  48 C :   -0.064703
  49 C :    0.036251
  50 C :   -0.065297
  51 S :    0.205393
  52 C :   -0.101871
  53 C :    0.015682
  54 C :    0.310997
  55 C :   -0.303668
  56 C :   -0.186234
  57 N :    0.163794
  58 C :   -0.183861
  59 N :    0.170074
  60 C :   -0.051689
  61 C :   -0.066734
  62 S :    0.164166
  63 C :    0.163985
  64 C :   -0.039019
  65 C :   -0.013403
  66 C :    0.088738
  67 C :    0.044991
  68 C :   -0.098670
  69 C :    0.089610
  70 C :   -0.224218
  71 C :    0.128803
  72 O :   -0.162910
  73 N :   -0.031293
  74 C :   -0.139269
  75 N :    0.128592
  76 H :   -0.010267
  77 H :    0.008539
  78 H :   -0.005429
  79 H :    0.053329
  80 H :    0.036405
  81 H :    0.035390
  82 H :    0.008793
  83 H :   -0.007349
  84 H :    0.011790
  85 H :    0.021494
  86 H :    0.018752
  87 H :    0.003951
  88 H :    0.000727
  89 H :   -0.025707
  90 H :   -0.017110
  91 H :    0.014684
  92 H :    0.135359
Sum of atomic charges:   -0.0000000

LOEWDIN ATOMIC CHARGES
----------------------
   0 C :   -0.005090
   1 C :   -0.019570
   2 C :    0.006002
   3 C :   -0.064803
   4 C :    0.034514
   5 C :   -0.021861
   6 C :    0.089680
   7 O :   -0.182407
   8 N :   -0.029551
   9 C :    0.037875
  10 C :    0.086721
  11 O :   -0.180231
  12 C :   -0.065988
  13 C :    0.033349
  14 C :   -0.013414
  15 C :   -0.014597
  16 C :   -0.160554
  17 C :   -0.024984
  18 C :   -0.068862
  19 C :   -0.181092
  20 S :    0.492148
  21 C :   -0.184041
  22 C :   -0.074637
  23 C :    0.081174
  24 C :   -0.103061
  25 C :   -0.018812
  26 N :   -0.029209
  27 C :   -0.016361
  28 N :   -0.035020
  29 C :   -0.013104
  30 C :   -0.165358
  31 S :    0.511289
  32 C :   -0.047321
  33 C :   -0.007701
  34 C :   -0.017600
  35 N :   -0.059284
  36 C :    0.064474
  37 C :    0.061791
  38 N :   -0.027746
  39 F :   -0.017833
  40 F :   -0.024192
  41 C :   -0.042108
  42 C :   -0.039137
  43 C :   -0.047436
  44 N :   -0.307042
  45 S :    0.687509
  46 N :   -0.269650
  47 C :   -0.170222
  48 C :   -0.011277
  49 C :   -0.076928
  50 C :   -0.181020
  51 S :    0.509823
  52 C :   -0.181358
  53 C :   -0.065447
  54 C :    0.083447
  55 C :   -0.105289
  56 C :   -0.014861
  57 N :   -0.038769
  58 C :   -0.016337
  59 N :   -0.034073
  60 C :   -0.033632
  61 C :   -0.154813
  62 S :    0.475602
  63 C :   -0.053562
  64 C :    0.001009
  65 C :   -0.042633
  66 C :    0.051773
  67 C :   -0.057621
  68 C :    0.016330
  69 C :    0.068688
  70 C :   -0.108979
  71 C :    0.071305
  72 O :   -0.187793
  73 N :    0.048258
  74 C :   -0.024882
  75 N :   -0.039288
  76 H :    0.017860
  77 H :    0.041154
  78 H :    0.034170
  79 H :    0.032804
  80 H :    0.031153
  81 H :    0.030835
  82 H :    0.043110
  83 H :    0.035100
  84 H :    0.041979
  85 H :    0.037310
  86 H :    0.037153
  87 H :    0.037572
  88 H :    0.025822
  89 H :    0.034004
  90 H :    0.035765
  91 H :    0.049422
  92 H :    0.100467

  Mayer bond orders larger than 0.100000
B(  0-C ,  1-C ) :   1.2438 B(  0-C ,  5-C ) :   1.4844 B(  0-C , 76-H ) :   0.9734
B(  1-C ,  2-C ) :   1.2584 B(  1-C , 15-C ) :   1.2136 B(  2-C ,  3-C ) :   1.2296
B(  2-C , 12-C ) :   1.2254 B(  3-C ,  4-C ) :   1.4993 B(  3-C ,  6-C ) :   0.9291
B(  4-C ,  5-C ) :   1.2461 B(  4-C , 77-H ) :   0.9918 B(  5-C , 78-H ) :   0.9872
B(  6-C ,  7-O ) :   2.1615 B(  6-C ,  8-N ) :   1.0836 B(  8-N ,  9-C ) :   0.9362
B(  8-N , 10-C ) :   1.0798 B(  9-C , 79-H ) :   0.9543 B(  9-C , 80-H ) :   0.9745
B(  9-C , 81-H ) :   0.9751 B( 10-C , 11-O ) :   2.1682 B( 10-C , 12-C ) :   0.9339
B( 12-C , 13-C ) :   1.4707 B( 13-C , 14-C ) :   1.2488 B( 13-C , 82-H ) :   0.9935
B( 14-C , 15-C ) :   1.4650 B( 14-C , 83-H ) :   0.9957 B( 15-C , 16-C ) :   0.9835
B( 16-C , 17-C ) :   1.5075 B( 16-C , 20-S ) :   1.1102 B( 17-C , 18-C ) :   1.2716
B( 17-C , 84-H ) :   0.9950 B( 18-C , 19-C ) :   1.4374 B( 18-C , 23-C ) :   0.9908
B( 19-C , 20-S ) :   1.1211 B( 19-C , 21-C ) :   1.1906 B( 21-C , 22-C ) :   1.4097
B( 21-C , 31-S ) :   1.1030 B( 22-C , 23-C ) :   0.9906 B( 22-C , 29-C ) :   1.2672
B( 23-C , 24-C ) :   1.7131 B( 24-C , 25-C ) :   1.1376 B( 24-C , 27-C ) :   1.1322
B( 25-C , 26-N ) :   2.9915 B( 27-C , 28-N ) :   2.9913 B( 29-C , 30-C ) :   1.4177
B( 29-C , 85-H ) :   0.9872 B( 30-C , 31-S ) :   1.0972 B( 30-C , 32-C ) :   1.1803
B( 32-C , 33-C ) :   1.2997 B( 32-C , 41-C ) :   0.1284 B( 32-C , 43-C ) :   1.1878
B( 33-C , 34-C ) :   1.1113 B( 33-C , 38-N ) :   1.4389 B( 34-C , 35-N ) :   1.3765
B( 34-C , 41-C ) :   1.2936 B( 35-N , 36-C ) :   1.6532 B( 36-C , 37-C ) :   1.1038
B( 36-C , 40-F ) :   1.1894 B( 37-C , 38-N ) :   1.6618 B( 37-C , 39-F ) :   1.1858
B( 41-C , 42-C ) :   1.1995 B( 41-C , 47-C ) :   1.1940 B( 42-C , 43-C ) :   1.1132
B( 42-C , 46-N ) :   1.5099 B( 43-C , 44-N ) :   1.4666 B( 44-N , 45-S ) :   1.2689
B( 44-N , 46-N ) :   0.1515 B( 45-S , 46-N ) :   1.2886 B( 47-C , 48-C ) :   1.4217
B( 47-C , 51-S ) :   1.0845 B( 48-C , 49-C ) :   1.2744 B( 48-C , 86-H ) :   0.9819
B( 49-C , 50-C ) :   1.4103 B( 49-C , 54-C ) :   0.9893 B( 50-C , 51-S ) :   1.0934
B( 50-C , 52-C ) :   1.1860 B( 52-C , 53-C ) :   1.4461 B( 52-C , 62-S ) :   1.1183
B( 53-C , 54-C ) :   0.9969 B( 53-C , 60-C ) :   1.2742 B( 54-C , 55-C ) :   1.7072
B( 55-C , 56-C ) :   1.1325 B( 55-C , 58-C ) :   1.1375 B( 56-C , 57-N ) :   2.9853
B( 58-C , 59-N ) :   2.9859 B( 60-C , 61-C ) :   1.4992 B( 60-C , 87-H ) :   0.9863
B( 61-C , 62-S ) :   1.1066 B( 61-C , 63-C ) :   1.0630 B( 63-C , 64-C ) :   1.2715
B( 63-C , 68-C ) :   1.3730 B( 64-C , 65-C ) :   1.4549 B( 64-C , 88-H ) :   0.9792
B( 65-C , 66-C ) :   1.2910 B( 65-C , 89-H ) :   0.9903 B( 66-C , 67-C ) :   1.2947
B( 66-C , 73-N ) :   1.2024 B( 67-C , 68-C ) :   1.2885 B( 67-C , 69-C ) :   1.1218
B( 68-C , 90-H ) :   1.0026 B( 69-C , 70-C ) :   1.6478 B( 69-C , 91-H ) :   0.9862
B( 70-C , 71-C ) :   0.9499 B( 70-C , 74-C ) :   1.1094 B( 71-C , 72-O ) :   2.2459
B( 71-C , 73-N ) :   1.0842 B( 73-N , 92-H ) :   0.9015 B( 74-C , 75-N ) :   3.0450

-----------------------------------------------------------------------------
         ABSORPTION SPECTRUM VIA TRANSITION ELECTRIC DIPOLE MOMENTS
-----------------------------------------------------------------------------
State   Energy  Wavelength   fosc         T2         TX        TY        TZ
        (cm-1)    (nm)                  (au**2)     (au)      (au)      (au)
-----------------------------------------------------------------------------
   0    9534.8   1048.8   0.833688938  28.78511  -5.01745  -1.85795   0.39793
   1   12791.5    781.8   0.013241249   0.34079   0.57000   0.12259   0.02936
   2   13799.4    724.7   0.006639021   0.15839   0.28674   0.01941  -0.27530
   3   18025.0    554.8   0.004708057   0.08599  -0.07001  -0.07275   0.27531
   4   22461.4    445.2   0.009296734   0.13626   0.29553   0.01061  -0.22093
   5   23729.3    421.4   0.033616785   0.46639  -0.54226  -0.27793  -0.30837
   6   24646.5    405.7   0.827786734  11.05702  -3.00437  -1.33698  -0.49325
   7   25470.5    392.6   0.187860973   2.42815   1.26503   0.60772   0.67714
   8   26048.0    383.9   0.001398252   0.01767   0.10875   0.04888   0.05880
   9   26761.4    373.7   0.001087482   0.01338   0.09912   0.05959   0.00150
  10   26764.1    373.6   0.137447324   1.69067   1.16445   0.40725  -0.41095
  11   26931.9    371.3   0.062433166   0.76317   0.37481  -0.23234  -0.75413
  12   27706.3    360.9   0.023616371   0.28061   0.27936   0.39944   0.20742
  13   29108.8    343.5   0.836207474   9.45727   2.79364   1.27516  -0.16376
  14   29550.0    338.4   0.381775917   4.25330  -1.89027  -0.69533   0.44351
  15   30062.5    332.6   0.134531566   1.47325   0.80345  -0.14341  -0.89841
  16   30353.3    329.5   0.089659628   0.97245   0.23308  -0.31787  -0.90393
  17   31058.0    322.0   0.000727221   0.00771   0.00108  -0.00586   0.08760
  18   31604.1    316.4   0.029752812   0.30993  -0.23612  -0.24735  -0.43931
  19   31653.6    315.9   0.229910213   2.39117  -0.00979  -0.61978  -1.41667
  20   31882.8    313.6   0.471693252   4.87055  -0.14868  -1.22925  -1.82685
  21   31976.5    312.7   0.088246936   0.90854   0.78208   0.35743  -0.41127
  22   32042.0    312.1   0.006872087   0.07061   0.24796  -0.01821  -0.09376
  23   32560.2    307.1   0.352284524   3.56190  -1.77550  -0.59382  -0.23850
  24   32911.5    303.8   0.112364575   1.12398   0.98482   0.06223  -0.38759
  25   33068.0    302.4   0.030860978   0.30724   0.39171  -0.28736  -0.26688
  26   33431.1    299.1   0.003712713   0.03656  -0.12422  -0.13065  -0.06373
  27   33536.7    298.2   0.324380133   3.18427   0.62989  -0.41924  -1.61609
  28   33973.4    294.3   0.167919500   1.62719   0.67405   0.67356   0.84803
  29   34135.9    292.9   0.061773360   0.59575   0.47602   0.34105   0.50284
  30   34397.7    290.7   0.226823054   2.17087   0.99083  -0.05919  -1.08887
  31   34555.0    289.4   0.007590741   0.07232   0.20622   0.16327   0.05599
  32   35334.0    283.0   0.063248798   0.58930  -0.62557  -0.30147  -0.32722
  33   35445.5    282.1   0.005350245   0.04969  -0.18956   0.10233   0.05734
  34   35746.0    279.8   0.102454857   0.94358   0.46454  -0.19238  -0.83113
  35   35942.3    278.2   0.827953548   7.58361  -0.64471  -1.57487  -2.16512
  36   36649.2    272.9   0.140458715   1.26171  -0.55996  -0.57134  -0.78849
  37   36920.7    270.9   0.050477029   0.45009  -0.38028   0.35189   0.42621
  38   37316.5    268.0   0.043825611   0.38664   0.35328   0.38154   0.34097
  39   37422.4    267.2   0.007518459   0.06614   0.09121   0.21495   0.10779
  40   37607.3    265.9   0.001259136   0.01102   0.05290  -0.05491   0.07217
  41   37611.3    265.9   0.008290776   0.07257   0.06618   0.15645   0.20908
  42   37663.4    265.5   0.022986662   0.20092   0.34577   0.25782   0.12204
  43   38074.9    262.6   0.008134081   0.07033   0.03033   0.16579   0.20476
  44   38102.9    262.4   0.007612163   0.06577  -0.22650  -0.06857   0.09882
  45   38277.1    261.3   0.038589872   0.33190   0.54282   0.10729  -0.16042
  46   38308.5    261.0   0.062144371   0.53405   0.68756   0.14223  -0.20269
  47   38672.1    258.6   0.014976455   0.12749  -0.21000  -0.28596  -0.04026
  48   38876.3    257.2   0.013883782   0.11757  -0.31934  -0.10508   0.06748
  49   39199.5    255.1   0.050616220   0.42509   0.60004   0.22178  -0.12593
  50   39466.7    253.4   0.002013976   0.01680   0.00093  -0.06102   0.11435
  51   39728.1    251.7   0.022629303   0.18752   0.15976  -0.16112  -0.36883
  52   39894.8    250.7   0.010041410   0.08286  -0.17245  -0.20631  -0.10276
  53   39961.6    250.2   0.006383778   0.05259   0.20681  -0.07958  -0.05903
  54   40180.2    248.9   0.021017352   0.17220  -0.13016  -0.30953  -0.24383

FINAL SINGLE POINT ENERGY     -5120.170304986143

DIPOLE MOMENT
-------------
                                X             Y             Z
Electronic contribution:    -32.89712     -18.86085     -19.98954
Nuclear contribution   :     33.86506      19.17313      18.99080
                        -----------------------------------------
Total Dipole Moment    :      0.96794       0.31228      -0.99873
                        -----------------------------------------
Magnitude (a.u.)       :      1.42544
Magnitude (Debye)      :      3.62319

Rotational constants in cm-1:     0.002401     0.000185     0.000173
Rotational constants in MHz :    71.992530     5.543369     5.192219

                             ****ORCA TERMINATED NORMALLY****
TOTAL RUN TIME: 0 days 0 hours 9 minutes 51 seconds 298 msec
