                         Program Version 4.2.0 -  RELEASE  -
|  1> # ORCA input file
|  2> # SCF done       -133.043136608295          0.000844708010
|  3> ! CAM-B3LYP def2-SVP def2/J RIJCOSX Grid4 TightSCF
|  4> %maxcore 5000
|  5> %tddft
|  6>     Mode sTDDFT
|  7>     Ethresh 5.0
|  8>     maxcore 5000
|  9> end
| 10>
| 11> %pal
| 12>   nprocs 6
| 13>   end
| 14> * xyz 0 1
| 15>    C       -0.61241         0.04194         4.22602
| 16>    C       -0.77180        -0.00178         2.84623
| 17>    N       -0.60411         1.05847         2.08070
| 18>    C       -0.26977         2.19509         2.69300
| 19>    N       -0.09164         2.34292         4.00756
| 20>    C       -0.26226         1.27502         4.76103
| 21>    C       -0.08340         3.36885         1.88427
| 22>    C       -0.20666         3.49406         0.51829
| 23>    C        0.05078         4.80241         0.10119
| 24>    C        0.36860         5.65696         1.17305
| 25>    S        0.35210         4.85997         2.68005
| 26>    C        0.61029         6.95710         0.65256
| 27>    C        0.44539         6.92274        -0.74077
| 28>    C        0.08787         5.56712        -1.13432
| 29>    C       -0.15906         5.11807        -2.39813
| 30>    C       -0.09611         5.96489        -3.52543
| 31>    N       -0.04479         6.64160        -4.44959
| 32>    C       -0.49608         3.77518        -2.67113
| 33>    N       -0.77464         2.68876        -2.90938
| 34>    C        0.66407         8.16107        -1.34529
| 35>    C        0.99284         9.13604        -0.42365
| 36>    S        1.03192         8.50904         1.21936
| 37>    C        1.28323        10.51158        -0.68137
| 38>    C        1.58953        11.41991         0.33025
| 39>    N        1.86987        12.70049         0.16146
| 40>    C        1.88085        13.24742        -1.04478
| 41>    C        1.58578        12.44748        -2.18200
| 42>    C        1.28250        11.05578        -1.99321
| 43>    N        1.03212        10.44702        -3.15171
| 44>    S        1.16429        11.51183        -4.34593
| 45>    N        1.54514        12.79919        -3.46507
| 46>    C        2.19731        14.63488        -1.12994
| 47>    C        2.27273        15.44681        -2.24522
| 48>    C        2.61691        16.75337        -1.90070
| 49>    C        2.80111        16.92017        -0.51560
| 50>    S        2.55141        15.47977         0.36198
| 51>    C        3.14887        18.27694        -0.27350
| 52>    C        3.18399        18.96066        -1.49761
| 53>    C        2.84964        18.02797        -2.56233
| 54>    C        2.76815        18.29378        -3.89767
| 55>    C        3.01849        19.58003        -4.42016
| 56>    N        3.22288        20.62546        -4.84503
| 57>    C        2.42840        17.30554        -4.84602
| 58>    N        2.14958        16.51331        -5.62632
| 59>    C        3.52007        20.31071        -1.35461
| 60>    C        3.73834        20.65591        -0.03903
| 61>    S        3.52500        19.28603         1.04628
| 62>    C        4.09642        21.94311         0.49347
| 63>    C        4.32518        23.07137        -0.31005
| 64>    N        4.64771        24.24342         0.19643
| 65>    C        4.75494        24.32958         1.51079
| 66>    N        4.56908        23.34254         2.37034
| 67>    C        4.24448        22.16889         1.86942
| 68>    H       -0.75196        -0.82872         4.84422
| 69>    H       -1.04303        -0.91433         2.33070
| 70>    H       -0.11260         1.41851         5.82370
| 71>    H       -0.46986         2.66520        -0.11256
| 72>    H        0.59496         8.37050        -2.39704
| 73>    H        1.61021        11.08665         1.36009
| 74>    H        2.08336        15.07974        -3.23744
| 75>    H        3.59883        21.00449        -2.17115
| 76>    H        4.24831        23.02865        -1.38810
| 77>    H        5.01911        25.29495         1.92034
| 78>    H        4.09282        21.36882         2.58494
| 79> *
| 80>
| 81>                          ****END OF INPUT****

CARTESIAN COORDINATES (ANGSTROEM)
---------------------------------
  C     -0.612410    0.041940    4.226020
  C     -0.771800   -0.001780    2.846230
  N     -0.604110    1.058470    2.080700
  C     -0.269770    2.195090    2.693000
  N     -0.091640    2.342920    4.007560
  C     -0.262260    1.275020    4.761030
  C     -0.083400    3.368850    1.884270
  C     -0.206660    3.494060    0.518290
  C      0.050780    4.802410    0.101190
  C      0.368600    5.656960    1.173050
  S      0.352100    4.859970    2.680050
  C      0.610290    6.957100    0.652560
  C      0.445390    6.922740   -0.740770
  C      0.087870    5.567120   -1.134320
  C     -0.159060    5.118070   -2.398130
  C     -0.096110    5.964890   -3.525430
  N     -0.044790    6.641600   -4.449590
  C     -0.496080    3.775180   -2.671130
  N     -0.774640    2.688760   -2.909380
  C      0.664070    8.161070   -1.345290
  C      0.992840    9.136040   -0.423650
  S      1.031920    8.509040    1.219360
  C      1.283230   10.511580   -0.681370
  C      1.589530   11.419910    0.330250
  N      1.869870   12.700490    0.161460
  C      1.880850   13.247420   -1.044780
  C      1.585780   12.447480   -2.182000
  C      1.282500   11.055780   -1.993210
  N      1.032120   10.447020   -3.151710
  S      1.164290   11.511830   -4.345930
  N      1.545140   12.799190   -3.465070
  C      2.197310   14.634880   -1.129940
  C      2.272730   15.446810   -2.245220
  C      2.616910   16.753370   -1.900700
  C      2.801110   16.920170   -0.515600
  S      2.551410   15.479770    0.361980
  C      3.148870   18.276940   -0.273500
  C      3.183990   18.960660   -1.497610
  C      2.849640   18.027970   -2.562330
  C      2.768150   18.293780   -3.897670
  C      3.018490   19.580030   -4.420160
  N      3.222880   20.625460   -4.845030
  C      2.428400   17.305540   -4.846020
  N      2.149580   16.513310   -5.626320
  C      3.520070   20.310710   -1.354610
  C      3.738340   20.655910   -0.039030
  S      3.525000   19.286030    1.046280
  C      4.096420   21.943110    0.493470
  C      4.325180   23.071370   -0.310050
  N      4.647710   24.243420    0.196430
  C      4.754940   24.329580    1.510790
  N      4.569080   23.342540    2.370340
  C      4.244480   22.168890    1.869420
  H     -0.751960   -0.828720    4.844220
  H     -1.043030   -0.914330    2.330700
  H     -0.112600    1.418510    5.823700
  H     -0.469860    2.665200   -0.112560
  H      0.594960    8.370500   -2.397040
  H      1.610210   11.086650    1.360090
  H      2.083360   15.079740   -3.237440
  H      3.598830   21.004490   -2.171150
  H      4.248310   23.028650   -1.388100
  H      5.019110   25.294950    1.920340
  H      4.092820   21.368820    2.584940

 Total Charge           Charge          ....    0
 Multiplicity           Mult            ....    1
 Number of Electrons    NEL             ....  390
 Basis Dimension        Dim             ....  817

ORBITAL ENERGIES
----------------

  NO   OCC          E(Eh)            E(eV)
   0   2.0000     -89.042260     -2422.9631
   1   2.0000     -88.993370     -2421.6327
   2   2.0000     -88.987584     -2421.4753
   3   2.0000     -88.986323     -2421.4410
   4   2.0000     -88.982646     -2421.3409
   5   2.0000     -14.458485      -393.4354
   6   2.0000     -14.452946      -393.2846
   7   2.0000     -14.431079      -392.6896
   8   2.0000     -14.429266      -392.6403
   9   2.0000     -14.426536      -392.5660
  10   2.0000     -14.424023      -392.4976
  11   2.0000     -14.423610      -392.4864
  12   2.0000     -14.420110      -392.3911
  13   2.0000     -14.417894      -392.3308
  14   2.0000     -14.417338      -392.3157
  15   2.0000     -14.416409      -392.2904
  16   2.0000     -10.364805      -282.0407
  17   2.0000     -10.358362      -281.8654
  18   2.0000     -10.356550      -281.8160
  19   2.0000     -10.352283      -281.6999
  20   2.0000     -10.345902      -281.5263
  21   2.0000     -10.345848      -281.5248
  22   2.0000     -10.342499      -281.4337
  23   2.0000     -10.339460      -281.3510
  24   2.0000     -10.337378      -281.2943
  25   2.0000     -10.334818      -281.2247
  26   2.0000     -10.332898      -281.1725
  27   2.0000     -10.331478      -281.1338
  28   2.0000     -10.330547      -281.1085
  29   2.0000     -10.330491      -281.1070
  30   2.0000     -10.329828      -281.0889
  31   2.0000     -10.329406      -281.0774
  32   2.0000     -10.329395      -281.0771
  33   2.0000     -10.329243      -281.0730
  34   2.0000     -10.328425      -281.0507
  35   2.0000     -10.326787      -281.0061
  36   2.0000     -10.324860      -280.9537
  37   2.0000     -10.324442      -280.9423
  38   2.0000     -10.323823      -280.9255
  39   2.0000     -10.321583      -280.8646
  40   2.0000     -10.317961      -280.7660
  41   2.0000     -10.313147      -280.6350
  42   2.0000     -10.311421      -280.5880
  43   2.0000     -10.308047      -280.4962
  44   2.0000     -10.306157      -280.4448
  45   2.0000     -10.305027      -280.4140
  46   2.0000     -10.301572      -280.3200
  47   2.0000     -10.299499      -280.2636
  48   2.0000     -10.297690      -280.2144
  49   2.0000     -10.296241      -280.1750
  50   2.0000     -10.294921      -280.1390
  51   2.0000     -10.291872      -280.0561
  52   2.0000     -10.291369      -280.0424
  53   2.0000      -8.133670      -221.3284
  54   2.0000      -8.087885      -220.0825
  55   2.0000      -8.081524      -219.9095
  56   2.0000      -8.080807      -219.8899
  57   2.0000      -8.076710      -219.7784
  58   2.0000      -6.104879      -166.1222
  59   2.0000      -6.096910      -165.9053
  60   2.0000      -6.096292      -165.8885
  61   2.0000      -6.057089      -164.8218
  62   2.0000      -6.052924      -164.7084
  63   2.0000      -6.050740      -164.6490
  64   2.0000      -6.050346      -164.6383
  65   2.0000      -6.050066      -164.6307
  66   2.0000      -6.046440      -164.5320
  67   2.0000      -6.045906      -164.5175
  68   2.0000      -6.045879      -164.5167
  69   2.0000      -6.044117      -164.4688
  70   2.0000      -6.043221      -164.4444
  71   2.0000      -6.041580      -164.3998
  72   2.0000      -6.039369      -164.3396
  73   2.0000      -1.142764       -31.0962
  74   2.0000      -1.093314       -29.7506
  75   2.0000      -1.088948       -29.6318
  76   2.0000      -1.063036       -28.9267
  77   2.0000      -1.044493       -28.4221
  78   2.0000      -1.038414       -28.2567
  79   2.0000      -1.021974       -27.8093
  80   2.0000      -1.015753       -27.6400
  81   2.0000      -1.007700       -27.4209
  82   2.0000      -1.002433       -27.2776
  83   2.0000      -1.001032       -27.2395
  84   2.0000      -0.995196       -27.0807
  85   2.0000      -0.988744       -26.9051
  86   2.0000      -0.986451       -26.8427
  87   2.0000      -0.984271       -26.7834
  88   2.0000      -0.960100       -26.1256
  89   2.0000      -0.954028       -25.9604
  90   2.0000      -0.925273       -25.1780
  91   2.0000      -0.922176       -25.0937
  92   2.0000      -0.907847       -24.7038
  93   2.0000      -0.899172       -24.4677
  94   2.0000      -0.888767       -24.1846
  95   2.0000      -0.878753       -23.9121
  96   2.0000      -0.865312       -23.5463
  97   2.0000      -0.858622       -23.3643
  98   2.0000      -0.854997       -23.2657
  99   2.0000      -0.848173       -23.0800
 100   2.0000      -0.822973       -22.3942
 101   2.0000      -0.798357       -21.7244
 102   2.0000      -0.786185       -21.3932
 103   2.0000      -0.777778       -21.1644
 104   2.0000      -0.772330       -21.0162
 105   2.0000      -0.753927       -20.5154
 106   2.0000      -0.753122       -20.4935
 107   2.0000      -0.750170       -20.4132
 108   2.0000      -0.748354       -20.3637
 109   2.0000      -0.731997       -19.9187
 110   2.0000      -0.719704       -19.5841
 111   2.0000      -0.700761       -19.0687
 112   2.0000      -0.694970       -18.9111
 113   2.0000      -0.691678       -18.8215
 114   2.0000      -0.682245       -18.5648
 115   2.0000      -0.673602       -18.3297
 116   2.0000      -0.663955       -18.0671
 117   2.0000      -0.647780       -17.6270
 118   2.0000      -0.643117       -17.5001
 119   2.0000      -0.634517       -17.2661
 120   2.0000      -0.629419       -17.1274
 121   2.0000      -0.625703       -17.0262
 122   2.0000      -0.619500       -16.8575
 123   2.0000      -0.613220       -16.6866
 124   2.0000      -0.611690       -16.6449
 125   2.0000      -0.610360       -16.6087
 126   2.0000      -0.605484       -16.4760
 127   2.0000      -0.602127       -16.3847
 128   2.0000      -0.589103       -16.0303
 129   2.0000      -0.569644       -15.5008
 130   2.0000      -0.567715       -15.4483
 131   2.0000      -0.566509       -15.4155
 132   2.0000      -0.555331       -15.1113
 133   2.0000      -0.548466       -14.9245
 134   2.0000      -0.546245       -14.8641
 135   2.0000      -0.543905       -14.8004
 136   2.0000      -0.530922       -14.4471
 137   2.0000      -0.527422       -14.3519
 138   2.0000      -0.524835       -14.2815
 139   2.0000      -0.522088       -14.2067
 140   2.0000      -0.520514       -14.1639
 141   2.0000      -0.512512       -13.9462
 142   2.0000      -0.509059       -13.8522
 143   2.0000      -0.508236       -13.8298
 144   2.0000      -0.502916       -13.6850
 145   2.0000      -0.501511       -13.6468
 146   2.0000      -0.501062       -13.6346
 147   2.0000      -0.497369       -13.5341
 148   2.0000      -0.494674       -13.4608
 149   2.0000      -0.492386       -13.3985
 150   2.0000      -0.488292       -13.2871
 151   2.0000      -0.484670       -13.1886
 152   2.0000      -0.482994       -13.1429
 153   2.0000      -0.481406       -13.0997
 154   2.0000      -0.476034       -12.9535
 155   2.0000      -0.469196       -12.7675
 156   2.0000      -0.467568       -12.7232
 157   2.0000      -0.461616       -12.5612
 158   2.0000      -0.457625       -12.4526
 159   2.0000      -0.455430       -12.3929
 160   2.0000      -0.452235       -12.3059
 161   2.0000      -0.451376       -12.2826
 162   2.0000      -0.447283       -12.1712
 163   2.0000      -0.442496       -12.0409
 164   2.0000      -0.440977       -11.9996
 165   2.0000      -0.440072       -11.9750
 166   2.0000      -0.439105       -11.9487
 167   2.0000      -0.437513       -11.9053
 168   2.0000      -0.434020       -11.8103
 169   2.0000      -0.432702       -11.7744
 170   2.0000      -0.426433       -11.6038
 171   2.0000      -0.420627       -11.4458
 172   2.0000      -0.415745       -11.3130
 173   2.0000      -0.410848       -11.1797
 174   2.0000      -0.408315       -11.1108
 175   2.0000      -0.400488       -10.8978
 176   2.0000      -0.398764       -10.8509
 177   2.0000      -0.394432       -10.7330
 178   2.0000      -0.389601       -10.6016
 179   2.0000      -0.385626       -10.4934
 180   2.0000      -0.383705       -10.4411
 181   2.0000      -0.378756       -10.3065
 182   2.0000      -0.370718       -10.0878
 183   2.0000      -0.363254        -9.8846
 184   2.0000      -0.354873        -9.6566
 185   2.0000      -0.349002        -9.4968
 186   2.0000      -0.346880        -9.4391
 187   2.0000      -0.342297        -9.3144
 188   2.0000      -0.332045        -9.0354
 189   2.0000      -0.327769        -8.9190
 190   2.0000      -0.324196        -8.8218
 191   2.0000      -0.318038        -8.6542
 192   2.0000      -0.311167        -8.4673
 193   2.0000      -0.276606        -7.5268
 194   2.0000      -0.247419        -6.7326
 195   0.0000      -0.109416        -2.9774
 196   0.0000      -0.099988        -2.7208
 197   0.0000      -0.084615        -2.3025
 198   0.0000      -0.037406        -1.0179
 199   0.0000      -0.035793        -0.9740

MULLIKEN ATOMIC CHARGES
-----------------------
   0 C :   -0.024153
   1 C :    0.075517
   2 N :   -0.058014
   3 C :   -0.083492
   4 N :   -0.086095
   5 C :    0.075002
   6 C :   -0.033394
   7 C :   -0.038622
   8 C :    0.005035
   9 C :   -0.097556
  10 S :    0.233208
  11 C :   -0.094781
  12 C :    0.029936
  13 C :    0.303589
  14 C :   -0.304013
  15 C :   -0.189226
  16 N :    0.173551
  17 C :   -0.195592
  18 N :    0.181026
  19 C :   -0.063271
  20 C :   -0.098697
  21 S :    0.164979
  22 C :    0.085586
  23 C :   -0.063611
  24 N :   -0.059387
  25 C :    0.028147
  26 C :    0.000074
  27 C :    0.043531
  28 N :   -0.281760
  29 S :    0.557855
  30 N :   -0.257999
  31 C :   -0.119067
  32 C :   -0.053688
  33 C :    0.011385
  34 C :   -0.086188
  35 S :    0.234579
  36 C :   -0.101802
  37 C :    0.011037
  38 C :    0.306714
  39 C :   -0.301479
  40 C :   -0.185339
  41 N :    0.169332
  42 C :   -0.187317
  43 N :    0.177031
  44 C :   -0.043348
  45 C :   -0.051597
  46 S :    0.176200
  47 C :    0.030803
  48 C :    0.017339
  49 N :   -0.083270
  50 C :    0.065619
  51 N :   -0.081466
  52 C :   -0.005642
  53 H :    0.010187
  54 H :    0.016202
  55 H :    0.015623
  56 H :    0.018353
  57 H :    0.021070
  58 H :    0.008660
  59 H :    0.017922
  60 H :    0.009772
  61 H :    0.017033
  62 H :    0.022359
  63 H :    0.015606
Sum of atomic charges:   -0.0000000

LOEWDIN ATOMIC CHARGES
----------------------
   0 C :   -0.074691
   1 C :    0.056681
   2 N :   -0.083634
   3 C :    0.011943
   4 N :   -0.104429
   5 C :    0.054133
   6 C :   -0.190003
   7 C :   -0.001180
   8 C :   -0.075085
   9 C :   -0.177287
  10 S :    0.511608
  11 C :   -0.177575
  12 C :   -0.069123
  13 C :    0.081181
  14 C :   -0.102442
  15 C :   -0.016955
  16 N :   -0.033826
  17 C :   -0.018471
  18 N :   -0.031203
  19 C :   -0.020259
  20 C :   -0.162109
  21 S :    0.472573
  22 C :   -0.067248
  23 C :    0.005970
  24 N :   -0.084405
  25 C :   -0.003406
  26 C :   -0.061453
  27 C :   -0.030836
  28 N :   -0.275967
  29 S :    0.682644
  30 N :   -0.265734
  31 C :   -0.179035
  32 C :   -0.009660
  33 C :   -0.075188
  34 C :   -0.174546
  35 S :    0.513279
  36 C :   -0.178955
  37 C :   -0.066385
  38 C :    0.081263
  39 C :   -0.101718
  40 C :   -0.016112
  41 N :   -0.034548
  42 C :   -0.017856
  43 N :   -0.029076
  44 C :   -0.025902
  45 C :   -0.161064
  46 S :    0.480522
  47 C :   -0.081995
  48 C :    0.053370
  49 N :   -0.074439
  50 C :    0.045036
  51 N :   -0.075771
  52 C :    0.034469
  53 H :    0.036575
  54 H :    0.029066
  55 H :    0.028236
  56 H :    0.046133
  57 H :    0.039214
  58 H :    0.018006
  59 H :    0.040998
  60 H :    0.040267
  61 H :    0.028324
  62 H :    0.020428
  63 H :    0.017653

  Mayer bond orders larger than 0.100000
B(  0-C ,  1-C ) :   1.3692 B(  0-C ,  5-C ) :   1.3811 B(  0-C , 53-H ) :   0.9744
B(  1-C ,  2-N ) :   1.5448 B(  1-C , 54-H ) :   0.9828 B(  2-N ,  3-C ) :   1.6008
B(  3-C ,  4-N ) :   1.5933 B(  3-C ,  6-C ) :   1.0171 B(  4-N ,  5-C ) :   1.5416
B(  5-C , 55-H ) :   0.9820 B(  6-C ,  7-C ) :   1.4931 B(  6-C , 10-S ) :   1.1082
B(  7-C ,  8-C ) :   1.2578 B(  7-C , 56-H ) :   1.0062 B(  8-C ,  9-C ) :   1.4347
B(  8-C , 13-C ) :   0.9974 B(  9-C , 10-S ) :   1.1315 B(  9-C , 11-C ) :   1.1828
B( 11-C , 12-C ) :   1.4517 B( 11-C , 21-S ) :   1.1244 B( 12-C , 13-C ) :   0.9934
B( 12-C , 19-C ) :   1.2422 B( 13-C , 14-C ) :   1.7120 B( 14-C , 15-C ) :   1.1378
B( 14-C , 17-C ) :   1.1344 B( 15-C , 16-N ) :   2.9888 B( 17-C , 18-N ) :   3.0026
B( 19-C , 20-C ) :   1.4869 B( 19-C , 57-H ) :   0.9856 B( 20-C , 21-S ) :   1.0916
B( 20-C , 22-C ) :   1.1164 B( 22-C , 23-C ) :   1.4102 B( 22-C , 25-C ) :   0.1087
B( 22-C , 27-C ) :   1.2094 B( 23-C , 24-N ) :   1.4556 B( 23-C , 58-H ) :   0.9753
B( 24-N , 25-C ) :   1.6635 B( 25-C , 26-C ) :   1.1728 B( 25-C , 31-C ) :   1.1304
B( 26-C , 27-C ) :   1.1859 B( 26-C , 30-N ) :   1.5455 B( 27-C , 28-N ) :   1.5135
B( 28-N , 29-S ) :   1.2691 B( 28-N , 30-N ) :   0.1454 B( 29-S , 30-N ) :   1.2805
B( 31-C , 32-C ) :   1.4829 B( 31-C , 35-S ) :   1.0900 B( 32-C , 33-C ) :   1.2610
B( 32-C , 59-H ) :   0.9843 B( 33-C , 34-C ) :   1.4339 B( 33-C , 38-C ) :   0.9955
B( 34-C , 35-S ) :   1.1286 B( 34-C , 36-C ) :   1.1788 B( 36-C , 37-C ) :   1.4586
B( 36-C , 46-S ) :   1.1256 B( 37-C , 38-C ) :   0.9959 B( 37-C , 44-C ) :   1.2755
B( 38-C , 39-C ) :   1.7124 B( 39-C , 40-C ) :   1.1315 B( 39-C , 42-C ) :   1.1365
B( 40-C , 41-N ) :   2.9880 B( 42-C , 43-N ) :   2.9906 B( 44-C , 45-C ) :   1.5050
B( 44-C , 60-H ) :   0.9888 B( 45-C , 46-S ) :   1.1074 B( 45-C , 47-C ) :   1.0654
B( 47-C , 48-C ) :   1.3363 B( 47-C , 52-C ) :   1.3250 B( 48-C , 49-N ) :   1.5815
B( 48-C , 61-H ) :   0.9877 B( 49-N , 50-C ) :   1.5001 B( 50-C , 51-N ) :   1.5017
B( 50-C , 62-H ) :   0.9761 B( 51-N , 52-C ) :   1.5879 B( 52-C , 63-H ) :   0.9831

-----------------------------------------------------------------------------
         ABSORPTION SPECTRUM VIA TRANSITION ELECTRIC DIPOLE MOMENTS
-----------------------------------------------------------------------------
State   Energy  Wavelength   fosc         T2         TX        TY        TZ
        (cm-1)    (nm)                  (au**2)     (au)      (au)      (au)
-----------------------------------------------------------------------------
   0   13355.3    748.8   0.420828187  10.37356   0.70893   3.13490  -0.20826
   1   14158.9    706.3   0.030347889   0.70563  -0.08673  -0.63545   0.54250
   2   18421.3    542.9   0.847536392  15.14658   0.84382   3.78279  -0.35359
   3   22515.0    444.1   0.026126417   0.38202  -0.15266  -0.50095  -0.32827
   4   24782.1    403.5   0.039406176   0.52348   0.17654   0.68040   0.17138
   5   27207.4    367.5   0.071975743   0.87091   0.13993   0.17746   0.90545
   6   30163.8    331.5   0.996137100  10.87197   0.71741   3.20506  -0.29134
   7   30613.0    326.7   0.524684372   5.64246   0.19074   1.62241  -1.72449
   8   30819.4    324.5   0.063703110   0.68047   0.18678   0.46297   0.65669
   9   30956.4    323.0   0.593314872   6.30973   0.33361   0.26430   2.47560
  10   31075.2    321.8   0.000272183   0.00288   0.04913  -0.01792  -0.01221
  11   31664.5    315.8   0.095747472   0.99547   0.24528   0.74088   0.62162
  12   32016.0    312.3   0.001051492   0.01081   0.04418   0.09145   0.02230
  13   32515.6    307.5   0.310155423   3.14025  -0.30544  -1.61145   0.67097
  14   32610.4    306.7   0.000257935   0.00260   0.00411   0.04853  -0.01523
  15   32982.7    303.2   0.572628824   5.71561   0.59699   2.15589   0.84342
  16   33189.0    301.3   0.397284228   3.94079   0.13234  -0.36407   1.94698
  17   33681.4    296.9   0.065261678   0.63789   0.11821   0.15607   0.77431
  18   34239.7    292.1   0.096184952   0.92481   0.16395   0.27806   0.90588
  19   36107.6    277.0   0.003603896   0.03286   0.02804   0.04234   0.17401
  20   36557.7    273.5   0.071291336   0.64200  -0.19124  -0.77146  -0.10137
  21   37020.1    270.1   0.039357043   0.34999   0.04765  -0.06743   0.58581
  22   37529.7    266.5   0.010609470   0.09307  -0.29681   0.06719   0.02135
  23   37976.7    263.3   0.000022658   0.00020  -0.01378   0.00244  -0.00075
  24   38096.1    262.5   0.000511610   0.00442   0.00528   0.03520   0.05616
  25   38388.4    260.5   0.004912450   0.04213  -0.03176  -0.18761   0.07696
  26   38554.8    259.4   0.008251746   0.07046  -0.25650   0.06301   0.02644
  27   38792.9    257.8   0.030330767   0.25740  -0.13082  -0.47885  -0.10481
  28   39234.3    254.9   0.003157432   0.02649  -0.13116   0.07590  -0.05942
  29   39379.9    253.9   0.060735429   0.50774   0.06919   0.00354   0.70918
  30   39416.4    253.7   0.004959976   0.04143  -0.19553   0.04617  -0.03263
  31   39478.7    253.3   0.025309310   0.21105  -0.03560  -0.15197   0.43208
  32   39773.6    251.4   0.061104656   0.50577  -0.15822  -0.42351  -0.54898
  33   40179.9    248.9   0.006541005   0.05359  -0.05049  -0.13555  -0.18075

FINAL SINGLE POINT ENERGY     -4006.517854483952

DIPOLE MOMENT
-------------
                                X             Y             Z
Electronic contribution:     -0.77615       1.71744     -11.14611
Nuclear contribution   :      0.80080      -3.19474      14.43121
                        -----------------------------------------
Total Dipole Moment    :      0.02465      -1.47730       3.28510
                        -----------------------------------------
Magnitude (a.u.)       :      3.60207
Magnitude (Debye)      :      9.15573

Rotational constants in cm-1:     0.003748     0.000414     0.000373
Rotational constants in MHz :   112.356392    12.414002    11.179007

                             ****ORCA TERMINATED NORMALLY****
TOTAL RUN TIME: 0 days 0 hours 4 minutes 45 seconds 9 msec
