                         Program Version 4.2.0 -  RELEASE  -
|  1> # ORCA input file
|  2> # SCF done       -217.887456838842          0.000903412458
|  3> ! CAM-B3LYP def2-SVP def2/J RIJCOSX Grid4 TightSCF
|  4> %maxcore 5000
|  5> %tddft
|  6>     Mode sTDDFT
|  7>     Ethresh 5.0
|  8>     maxcore 5000
|  9> end
| 10>
| 11> %pal
| 12>   nprocs 6
| 13>   end
| 14> * xyz 0 1
| 15>    C       -4.21617         3.18160         2.58433
| 16>    C       -3.53480         3.83580         3.57188
| 17>    F       -3.52921         5.17421         3.61289
| 18>    C       -2.83109         3.11444         4.55779
| 19>    F       -2.17277         3.78305         5.51359
| 20>    C       -2.81823         1.74794         4.54193
| 21>    C       -3.51095         1.04502         3.53703
| 22>    C       -4.22390         1.77261         2.54017
| 23>    C       -4.93044         1.08956         1.52411
| 24>    C       -4.92684        -0.28126         1.50532
| 25>    C       -4.20921        -0.99580         2.50183
| 26>    C       -3.51577        -0.36626         3.49504
| 27>    C       -4.35067        -2.44479         2.27170
| 28>    O       -3.83280        -3.31619         2.93649
| 29>    C       -5.20771        -2.58191         1.06837
| 30>    C       -5.56143        -1.24558         0.61036
| 31>    C       -6.37115        -0.91126        -0.44430
| 32>    C       -7.04143        -1.80254        -1.30944
| 33>    N       -7.62897        -2.44645        -2.05789
| 34>    C       -6.67029         0.41687        -0.81944
| 35>    N       -6.95366         1.46769        -1.18407
| 36>    C       -5.59086        -3.73014         0.42831
| 37>    C       -5.40897        -5.08918         0.75125
| 38>    C       -4.85571        -5.73888         1.84950
| 39>    C       -4.94099        -7.11841         1.73833
| 40>    C       -5.56255        -7.54544         0.54147
| 41>    S       -6.04406        -6.24377        -0.43501
| 42>    C       -5.59581        -8.96167         0.52766
| 43>    C       -4.99429        -9.42993         1.71443
| 44>    C       -4.57251        -8.29228         2.51496
| 45>    C       -3.97947        -8.33077         3.74154
| 46>    C       -3.68185        -9.55083         4.38787
| 47>    N       -3.43461       -10.53514         4.92116
| 48>    C       -3.63140        -7.17365         4.47318
| 49>    N       -3.34274        -6.25965         5.10132
| 50>    C       -4.98418       -10.81947         1.79907
| 51>    C       -5.57560       -11.39600         0.69032
| 52>    S       -6.15062       -10.22777        -0.47581
| 53>    C       -5.77174       -12.78435         0.42913
| 54>    N       -6.41505       -13.11590        -0.68065
| 55>    N       -6.67825       -14.34095        -1.00630
| 56>    C       -6.32235       -15.37978        -0.26457
| 57>    C       -5.60316       -15.16319         0.94553
| 58>    C       -5.32015       -13.80885         1.31004
| 59>    N       -4.65458       -13.72995         2.45871
| 60>    S       -4.41081       -15.21557         3.02103
| 61>    N       -5.13528       -16.02927         1.83981
| 62>    C       -6.70525       -16.67601        -0.71887
| 63>    C       -6.43702       -17.89775        -0.12929
| 64>    C       -7.00643       -18.94381        -0.85033
| 65>    C       -7.70888       -18.49921        -1.98939
| 66>    S       -7.66096       -16.80370        -2.17685
| 67>    C       -8.27745       -19.62960        -2.62674
| 68>    C       -7.92788       -20.78646        -1.90209
| 69>    C       -7.11208       -20.39124        -0.76445
| 70>    C       -6.56312       -21.20332         0.18299
| 71>    C       -6.72139       -22.60577         0.15598
| 72>    N       -6.84112       -23.74545         0.13092
| 73>    C       -5.78817       -20.69781         1.24939
| 74>    N       -5.15613       -20.29545         2.11696
| 75>    C       -8.45714       -21.94817        -2.45359
| 76>    C       -9.24565       -21.68953        -3.56477
| 77>    S       -9.26565       -19.97340        -3.96687
| 78>    C       -9.90701       -22.66089        -4.35321
| 79>    C      -10.93914       -22.50244        -5.22417
| 80>    C      -11.17791       -23.52964        -6.27861
| 81>    O      -10.70938       -24.64181        -6.32365
| 82>    C      -12.04639       -22.86354        -7.27110
| 83>    C      -12.45771       -23.31488        -8.49213
| 84>    C      -13.26628       -22.48016        -9.29601
| 85>    C      -13.62856       -21.18597        -8.82030
| 86>    C      -14.42363       -20.35399        -9.63389
| 87>    C      -14.84386       -20.78778       -10.85979
| 88>    C      -14.48911       -22.06957       -11.32744
| 89>    C      -13.71720       -22.89898       -10.56304
| 90>    F      -14.91510       -22.46818       -12.53273
| 91>    F      -15.59886       -19.99624       -11.63139
| 92>    C      -13.19824       -20.74987        -7.54650
| 93>    C      -12.42537       -21.58065        -6.78096
| 94>    C      -11.87943       -21.42145        -5.43667
| 95>    C      -12.38760       -20.59178        -4.47237
| 96>    C      -12.02779       -20.67795        -3.11146
| 97>    N      -11.78381       -20.74730        -1.99193
| 98>    C      -13.38722       -19.62856        -4.71822
| 99>    N      -14.18783       -18.82190        -4.87647
|100>    H       -4.75019         3.74921         1.83832
|101>    H       -2.27547         1.20971         5.30310
|102>    H       -5.45664         1.67298         0.78667
|103>    H       -2.98246        -0.94014         4.23753
|104>    H       -6.14259        -3.59430        -0.49428
|105>    H       -4.41295        -5.20508         2.67164
|106>    H       -4.58093       -11.40430         2.60580
|107>    H       -5.86359       -17.98736         0.77558
|108>    H       -8.32063       -22.93958        -2.06076
|109>    H       -9.48735       -23.66177        -4.30832
|110>    H      -12.16982       -24.29483        -8.84104
|111>    H      -14.70771       -19.37209        -9.28894
|112>    H      -13.45420       -23.87651       -10.93578
|113>    H      -13.48008       -19.76450        -7.21067
|114> *
|115>
|116>                          ****END OF INPUT****

CARTESIAN COORDINATES (ANGSTROEM)
---------------------------------
  C     -4.216170    3.181600    2.584330
  C     -3.534800    3.835800    3.571880
  F     -3.529210    5.174210    3.612890
  C     -2.831090    3.114440    4.557790
  F     -2.172770    3.783050    5.513590
  C     -2.818230    1.747940    4.541930
  C     -3.510950    1.045020    3.537030
  C     -4.223900    1.772610    2.540170
  C     -4.930440    1.089560    1.524110
  C     -4.926840   -0.281260    1.505320
  C     -4.209210   -0.995800    2.501830
  C     -3.515770   -0.366260    3.495040
  C     -4.350670   -2.444790    2.271700
  O     -3.832800   -3.316190    2.936490
  C     -5.207710   -2.581910    1.068370
  C     -5.561430   -1.245580    0.610360
  C     -6.371150   -0.911260   -0.444300
  C     -7.041430   -1.802540   -1.309440
  N     -7.628970   -2.446450   -2.057890
  C     -6.670290    0.416870   -0.819440
  N     -6.953660    1.467690   -1.184070
  C     -5.590860   -3.730140    0.428310
  C     -5.408970   -5.089180    0.751250
  C     -4.855710   -5.738880    1.849500
  C     -4.940990   -7.118410    1.738330
  C     -5.562550   -7.545440    0.541470
  S     -6.044060   -6.243770   -0.435010
  C     -5.595810   -8.961670    0.527660
  C     -4.994290   -9.429930    1.714430
  C     -4.572510   -8.292280    2.514960
  C     -3.979470   -8.330770    3.741540
  C     -3.681850   -9.550830    4.387870
  N     -3.434610  -10.535140    4.921160
  C     -3.631400   -7.173650    4.473180
  N     -3.342740   -6.259650    5.101320
  C     -4.984180  -10.819470    1.799070
  C     -5.575600  -11.396000    0.690320
  S     -6.150620  -10.227770   -0.475810
  C     -5.771740  -12.784350    0.429130
  N     -6.415050  -13.115900   -0.680650
  N     -6.678250  -14.340950   -1.006300
  C     -6.322350  -15.379780   -0.264570
  C     -5.603160  -15.163190    0.945530
  C     -5.320150  -13.808850    1.310040
  N     -4.654580  -13.729950    2.458710
  S     -4.410810  -15.215570    3.021030
  N     -5.135280  -16.029270    1.839810
  C     -6.705250  -16.676010   -0.718870
  C     -6.437020  -17.897750   -0.129290
  C     -7.006430  -18.943810   -0.850330
  C     -7.708880  -18.499210   -1.989390
  S     -7.660960  -16.803700   -2.176850
  C     -8.277450  -19.629600   -2.626740
  C     -7.927880  -20.786460   -1.902090
  C     -7.112080  -20.391240   -0.764450
  C     -6.563120  -21.203320    0.182990
  C     -6.721390  -22.605770    0.155980
  N     -6.841120  -23.745450    0.130920
  C     -5.788170  -20.697810    1.249390
  N     -5.156130  -20.295450    2.116960
  C     -8.457140  -21.948170   -2.453590
  C     -9.245650  -21.689530   -3.564770
  S     -9.265650  -19.973400   -3.966870
  C     -9.907010  -22.660890   -4.353210
  C    -10.939140  -22.502440   -5.224170
  C    -11.177910  -23.529640   -6.278610
  O    -10.709380  -24.641810   -6.323650
  C    -12.046390  -22.863540   -7.271100
  C    -12.457710  -23.314880   -8.492130
  C    -13.266280  -22.480160   -9.296010
  C    -13.628560  -21.185970   -8.820300
  C    -14.423630  -20.353990   -9.633890
  C    -14.843860  -20.787780  -10.859790
  C    -14.489110  -22.069570  -11.327440
  C    -13.717200  -22.898980  -10.563040
  F    -14.915100  -22.468180  -12.532730
  F    -15.598860  -19.996240  -11.631390
  C    -13.198240  -20.749870   -7.546500
  C    -12.425370  -21.580650   -6.780960
  C    -11.879430  -21.421450   -5.436670
  C    -12.387600  -20.591780   -4.472370
  C    -12.027790  -20.677950   -3.111460
  N    -11.783810  -20.747300   -1.991930
  C    -13.387220  -19.628560   -4.718220
  N    -14.187830  -18.821900   -4.876470
  H     -4.750190    3.749210    1.838320
  H     -2.275470    1.209710    5.303100
  H     -5.456640    1.672980    0.786670
  H     -2.982460   -0.940140    4.237530
  H     -6.142590   -3.594300   -0.494280
  H     -4.412950   -5.205080    2.671640
  H     -4.580930  -11.404300    2.605800
  H     -5.863590  -17.987360    0.775580
  H     -8.320630  -22.939580   -2.060760
  H     -9.487350  -23.661770   -4.308320
  H    -12.169820  -24.294830   -8.841040
  H    -14.707710  -19.372090   -9.288940
  H    -13.454200  -23.876510  -10.935780
  H    -13.480080  -19.764500   -7.210670

 Total Charge           Charge          ....    0
 Multiplicity           Mult            ....    1
 Number of Electrons    NEL             ....  602
 Basis Dimension        Dim             .... 1280

ORBITAL ENERGIES
----------------

  NO   OCC          E(Eh)            E(eV)
   0   2.0000     -89.063330     -2423.5364
   1   2.0000     -89.003859     -2421.9181
   2   2.0000     -89.002776     -2421.8887
   3   2.0000     -89.000432     -2421.8249
   4   2.0000     -89.000298     -2421.8212
   5   2.0000     -24.803128      -674.9274
   6   2.0000     -24.802625      -674.9137
   7   2.0000     -24.800105      -674.8452
   8   2.0000     -24.799526      -674.8294
   9   2.0000     -19.225338      -523.1480
  10   2.0000     -19.223890      -523.1086
  11   2.0000     -14.477675      -393.9576
  12   2.0000     -14.477562      -393.9545
  13   2.0000     -14.465729      -393.6325
  14   2.0000     -14.465254      -393.6196
  15   2.0000     -14.437908      -392.8754
  16   2.0000     -14.437844      -392.8737
  17   2.0000     -14.437408      -392.8618
  18   2.0000     -14.434038      -392.7701
  19   2.0000     -14.425239      -392.5307
  20   2.0000     -14.424503      -392.5107
  21   2.0000     -14.424148      -392.5010
  22   2.0000     -14.419526      -392.3752
  23   2.0000     -10.386744      -282.6377
  24   2.0000     -10.386403      -282.6284
  25   2.0000     -10.383729      -282.5556
  26   2.0000     -10.383000      -282.5358
  27   2.0000     -10.376366      -282.3553
  28   2.0000     -10.376049      -282.3467
  29   2.0000     -10.374304      -282.2992
  30   2.0000     -10.373783      -282.2850
  31   2.0000     -10.362065      -281.9661
  32   2.0000     -10.361745      -281.9574
  33   2.0000     -10.361491      -281.9505
  34   2.0000     -10.360134      -281.9136
  35   2.0000     -10.359844      -281.9057
  36   2.0000     -10.359575      -281.8984
  37   2.0000     -10.354337      -281.7558
  38   2.0000     -10.352904      -281.7168
  39   2.0000     -10.352724      -281.7119
  40   2.0000     -10.351521      -281.6792
  41   2.0000     -10.348679      -281.6019
  42   2.0000     -10.348014      -281.5838
  43   2.0000     -10.344634      -281.4918
  44   2.0000     -10.344459      -281.4870
  45   2.0000     -10.337787      -281.3055
  46   2.0000     -10.337742      -281.3043
  47   2.0000     -10.337621      -281.3010
  48   2.0000     -10.337296      -281.2921
  49   2.0000     -10.336846      -281.2799
  50   2.0000     -10.335691      -281.2484
  51   2.0000     -10.334890      -281.2267
  52   2.0000     -10.334564      -281.2178
  53   2.0000     -10.333992      -281.2022
  54   2.0000     -10.333036      -281.1762
  55   2.0000     -10.327415      -281.0232
  56   2.0000     -10.327012      -281.0123
  57   2.0000     -10.326248      -280.9915
  58   2.0000     -10.322652      -280.8936
  59   2.0000     -10.321496      -280.8622
  60   2.0000     -10.317244      -280.7465
  61   2.0000     -10.317092      -280.7424
  62   2.0000     -10.317053      -280.7413
  63   2.0000     -10.316605      -280.7291
  64   2.0000     -10.316388      -280.7232
  65   2.0000     -10.316188      -280.7178
  66   2.0000     -10.315680      -280.7039
  67   2.0000     -10.313104      -280.6338
  68   2.0000     -10.312848      -280.6269
  69   2.0000     -10.312704      -280.6229
  70   2.0000     -10.312495      -280.6173
  71   2.0000     -10.312449      -280.6160
  72   2.0000     -10.310849      -280.5725
  73   2.0000     -10.309769      -280.5431
  74   2.0000     -10.309668      -280.5403
  75   2.0000     -10.309606      -280.5387
  76   2.0000     -10.309283      -280.5298
  77   2.0000     -10.306534      -280.4550
  78   2.0000     -10.305904      -280.4379
  79   2.0000     -10.305521      -280.4275
  80   2.0000     -10.304886      -280.4102
  81   2.0000     -10.303147      -280.3629
  82   2.0000     -10.302605      -280.3481
  83   2.0000     -10.301410      -280.3156
  84   2.0000     -10.295899      -280.1657
  85   2.0000      -8.154638      -221.8990
  86   2.0000      -8.098097      -220.3604
  87   2.0000      -8.097579      -220.3463
  88   2.0000      -8.094355      -220.2586
  89   2.0000      -8.094157      -220.2532
  90   2.0000      -6.125799      -166.6915
  91   2.0000      -6.117824      -166.4745
  92   2.0000      -6.117332      -166.4611
  93   2.0000      -6.067329      -165.1004
  94   2.0000      -6.066635      -165.0815
  95   2.0000      -6.063642      -165.0001
  96   2.0000      -6.063438      -164.9945
  97   2.0000      -6.063118      -164.9858
  98   2.0000      -6.062522      -164.9696
  99   2.0000      -6.060512      -164.9149
 100   2.0000      -6.060149      -164.9050
 101   2.0000      -6.059270      -164.8811
 102   2.0000      -6.059043      -164.8749
 103   2.0000      -6.056829      -164.8147
 104   2.0000      -6.056688      -164.8109
 105   2.0000      -1.326077       -36.0844
 106   2.0000      -1.322853       -35.9967
 107   2.0000      -1.311192       -35.6793
 108   2.0000      -1.307952       -35.5912
 109   2.0000      -1.167613       -31.7724
 110   2.0000      -1.142492       -31.0888
 111   2.0000      -1.141299       -31.0563
 112   2.0000      -1.140001       -31.0210
 113   2.0000      -1.057689       -28.7812
 114   2.0000      -1.056649       -28.7529
 115   2.0000      -1.031242       -28.0615
 116   2.0000      -1.029740       -28.0207
 117   2.0000      -1.028656       -27.9912
 118   2.0000      -1.026074       -27.9209
 119   2.0000      -1.024147       -27.8684
 120   2.0000      -1.015355       -27.6292
 121   2.0000      -1.012683       -27.5565
 122   2.0000      -1.011703       -27.5298
 123   2.0000      -1.010416       -27.4948
 124   2.0000      -1.009097       -27.4589
 125   2.0000      -1.008113       -27.4322
 126   2.0000      -1.002560       -27.2810
 127   2.0000      -1.000140       -27.2152
 128   2.0000      -0.989394       -26.9228
 129   2.0000      -0.985810       -26.8253
 130   2.0000      -0.976890       -26.5825
 131   2.0000      -0.970402       -26.4060
 132   2.0000      -0.952242       -25.9118
 133   2.0000      -0.943017       -25.6608
 134   2.0000      -0.940162       -25.5831
 135   2.0000      -0.937389       -25.5077
 136   2.0000      -0.925036       -25.1715
 137   2.0000      -0.921973       -25.0881
 138   2.0000      -0.908087       -24.7103
 139   2.0000      -0.904138       -24.6028
 140   2.0000      -0.899287       -24.4708
 141   2.0000      -0.895210       -24.3599
 142   2.0000      -0.886817       -24.1315
 143   2.0000      -0.885059       -24.0837
 144   2.0000      -0.878112       -23.8946
 145   2.0000      -0.873541       -23.7703
 146   2.0000      -0.867644       -23.6098
 147   2.0000      -0.866744       -23.5853
 148   2.0000      -0.847407       -23.0591
 149   2.0000      -0.844805       -22.9883
 150   2.0000      -0.843235       -22.9456
 151   2.0000      -0.827541       -22.5185
 152   2.0000      -0.819342       -22.2954
 153   2.0000      -0.794195       -21.6112
 154   2.0000      -0.788887       -21.4667
 155   2.0000      -0.788075       -21.4446
 156   2.0000      -0.785033       -21.3618
 157   2.0000      -0.774287       -21.0694
 158   2.0000      -0.772808       -21.0292
 159   2.0000      -0.764427       -20.8011
 160   2.0000      -0.757498       -20.6126
 161   2.0000      -0.745395       -20.2832
 162   2.0000      -0.737636       -20.0721
 163   2.0000      -0.726766       -19.7763
 164   2.0000      -0.724882       -19.7251
 165   2.0000      -0.720580       -19.6080
 166   2.0000      -0.716932       -19.5087
 167   2.0000      -0.712221       -19.3805
 168   2.0000      -0.702171       -19.1070
 169   2.0000      -0.699196       -19.0261
 170   2.0000      -0.696000       -18.9391
 171   2.0000      -0.693773       -18.8785
 172   2.0000      -0.690162       -18.7803
 173   2.0000      -0.688162       -18.7258
 174   2.0000      -0.678663       -18.4674
 175   2.0000      -0.668821       -18.1995
 176   2.0000      -0.663690       -18.0599
 177   2.0000      -0.661151       -17.9908
 178   2.0000      -0.658359       -17.9149
 179   2.0000      -0.655101       -17.8262
 180   2.0000      -0.649038       -17.6612
 181   2.0000      -0.645314       -17.5599
 182   2.0000      -0.643365       -17.5069
 183   2.0000      -0.636380       -17.3168
 184   2.0000      -0.635332       -17.2883
 185   2.0000      -0.627608       -17.0781
 186   2.0000      -0.625821       -17.0295
 187   2.0000      -0.624303       -16.9882
 188   2.0000      -0.623513       -16.9666
 189   2.0000      -0.621665       -16.9164
 190   2.0000      -0.613610       -16.6972
 191   2.0000      -0.600066       -16.3286
 192   2.0000      -0.599141       -16.3035
 193   2.0000      -0.594982       -16.1903
 194   2.0000      -0.593952       -16.1623
 195   2.0000      -0.590518       -16.0688
 196   2.0000      -0.587889       -15.9973
 197   2.0000      -0.587355       -15.9827
 198   2.0000      -0.585164       -15.9231
 199   2.0000      -0.581621       -15.8267
 200   2.0000      -0.574198       -15.6247
 201   2.0000      -0.570083       -15.5127
 202   2.0000      -0.561068       -15.2674
 203   2.0000      -0.559240       -15.2177
 204   2.0000      -0.558573       -15.1995
 205   2.0000      -0.556385       -15.1400
 206   2.0000      -0.554703       -15.0942
 207   2.0000      -0.551979       -15.0201
 208   2.0000      -0.548908       -14.9365
 209   2.0000      -0.547320       -14.8933
 210   2.0000      -0.545424       -14.8417
 211   2.0000      -0.544732       -14.8229
 212   2.0000      -0.543023       -14.7764
 213   2.0000      -0.539420       -14.6784
 214   2.0000      -0.535930       -14.5834
 215   2.0000      -0.535336       -14.5672
 216   2.0000      -0.534766       -14.5517
 217   2.0000      -0.531952       -14.4751
 218   2.0000      -0.531308       -14.4576
 219   2.0000      -0.524245       -14.2654
 220   2.0000      -0.521770       -14.1981
 221   2.0000      -0.518886       -14.1196
 222   2.0000      -0.518448       -14.1077
 223   2.0000      -0.517486       -14.0815
 224   2.0000      -0.514024       -13.9873
 225   2.0000      -0.512422       -13.9437
 226   2.0000      -0.511211       -13.9108
 227   2.0000      -0.510492       -13.8912
 228   2.0000      -0.508864       -13.8469
 229   2.0000      -0.505851       -13.7649
 230   2.0000      -0.504892       -13.7388
 231   2.0000      -0.503169       -13.6919
 232   2.0000      -0.502214       -13.6659
 233   2.0000      -0.499853       -13.6017
 234   2.0000      -0.497890       -13.5483
 235   2.0000      -0.494681       -13.4610
 236   2.0000      -0.489781       -13.3276
 237   2.0000      -0.488202       -13.2846
 238   2.0000      -0.484050       -13.1717
 239   2.0000      -0.481014       -13.0891
 240   2.0000      -0.475148       -12.9294
 241   2.0000      -0.472550       -12.8587
 242   2.0000      -0.469890       -12.7863
 243   2.0000      -0.468488       -12.7482
 244   2.0000      -0.467223       -12.7138
 245   2.0000      -0.465948       -12.6791
 246   2.0000      -0.465432       -12.6651
 247   2.0000      -0.464198       -12.6315
 248   2.0000      -0.462980       -12.5983
 249   2.0000      -0.460824       -12.5397
 250   2.0000      -0.459010       -12.4903
 251   2.0000      -0.458391       -12.4735
 252   2.0000      -0.456408       -12.4195
 253   2.0000      -0.455587       -12.3972
 254   2.0000      -0.452907       -12.3242
 255   2.0000      -0.452719       -12.3191
 256   2.0000      -0.451042       -12.2735
 257   2.0000      -0.450085       -12.2474
 258   2.0000      -0.449700       -12.2369
 259   2.0000      -0.448173       -12.1954
 260   2.0000      -0.447713       -12.1829
 261   2.0000      -0.446286       -12.1441
 262   2.0000      -0.445130       -12.1126
 263   2.0000      -0.443886       -12.0788
 264   2.0000      -0.439312       -11.9543
 265   2.0000      -0.437403       -11.9023
 266   2.0000      -0.436319       -11.8728
 267   2.0000      -0.434682       -11.8283
 268   2.0000      -0.434186       -11.8148
 269   2.0000      -0.433948       -11.8083
 270   2.0000      -0.431715       -11.7476
 271   2.0000      -0.428159       -11.6508
 272   2.0000      -0.427850       -11.6424
 273   2.0000      -0.426985       -11.6189
 274   2.0000      -0.416048       -11.3212
 275   2.0000      -0.413929       -11.2636
 276   2.0000      -0.412679       -11.2296
 277   2.0000      -0.410113       -11.1598
 278   2.0000      -0.406557       -11.0630
 279   2.0000      -0.404810       -11.0154
 280   2.0000      -0.397264       -10.8101
 281   2.0000      -0.396143       -10.7796
 282   2.0000      -0.391576       -10.6553
 283   2.0000      -0.389123       -10.5886
 284   2.0000      -0.380898       -10.3648
 285   2.0000      -0.370431       -10.0799
 286   2.0000      -0.359971        -9.7953
 287   2.0000      -0.358513        -9.7556
 288   2.0000      -0.351538        -9.5658
 289   2.0000      -0.346702        -9.4342
 290   2.0000      -0.342724        -9.3260
 291   2.0000      -0.334619        -9.1055
 292   2.0000      -0.330464        -8.9924
 293   2.0000      -0.328135        -8.9290
 294   2.0000      -0.324964        -8.8427
 295   2.0000      -0.322476        -8.7750
 296   2.0000      -0.320237        -8.7141
 297   2.0000      -0.308146        -8.3851
 298   2.0000      -0.304003        -8.2723
 299   2.0000      -0.286112        -7.7855
 300   2.0000      -0.266080        -7.2404
 301   0.0000      -0.130478        -3.5505
 302   0.0000      -0.118684        -3.2295
 303   0.0000      -0.101599        -2.7647
 304   0.0000      -0.097076        -2.6416
 305   0.0000      -0.094681        -2.5764

MULLIKEN ATOMIC CHARGES
-----------------------
   0 C :   -0.108082
   1 C :    0.243201
   2 F :   -0.170137
   3 C :    0.237221
   4 F :   -0.171033
   5 C :   -0.103129
   6 C :    0.117723
   7 C :    0.114357
   8 C :   -0.084276
   9 C :    0.048476
  10 C :   -0.002188
  11 C :   -0.080734
  12 C :    0.156244
  13 O :   -0.144241
  14 C :   -0.088482
  15 C :    0.325760
  16 C :   -0.361833
  17 C :   -0.184088
  18 N :    0.148301
  19 C :   -0.181946
  20 N :    0.149377
  21 C :    0.043810
  22 C :   -0.113511
  23 C :   -0.014451
  24 C :   -0.001948
  25 C :   -0.086996
  26 S :    0.213817
  27 C :   -0.088819
  28 C :    0.014593
  29 C :    0.319039
  30 C :   -0.299790
  31 C :   -0.189191
  32 N :    0.175391
  33 C :   -0.194620
  34 N :    0.197429
  35 C :   -0.057599
  36 C :   -0.120731
  37 S :    0.257290
  38 C :    0.011551
  39 N :   -0.058046
  40 N :   -0.060835
  41 C :    0.014055
  42 C :    0.033426
  43 C :    0.030037
  44 N :   -0.255097
  45 S :    0.577948
  46 N :   -0.255589
  47 C :   -0.123569
  48 C :   -0.053796
  49 C :    0.015632
  50 C :   -0.084858
  51 S :    0.257533
  52 C :   -0.088167
  53 C :    0.029654
  54 C :    0.302020
  55 C :   -0.292350
  56 C :   -0.190500
  57 N :    0.178949
  58 C :   -0.185393
  59 N :    0.176936
  60 C :    0.009177
  61 C :   -0.096665
  62 S :    0.210921
  63 C :    0.049737
  64 C :   -0.137519
  65 C :    0.143175
  66 O :   -0.135515
  67 C :    0.012195
  68 C :   -0.080004
  69 C :    0.110299
  70 C :    0.111810
  71 C :   -0.104311
  72 C :    0.241523
  73 C :    0.240778
  74 C :   -0.102675
  75 F :   -0.169468
  76 F :   -0.169666
  77 C :   -0.078400
  78 C :    0.036590
  79 C :    0.243973
  80 C :   -0.317996
  81 C :   -0.205047
  82 N :    0.171885
  83 C :   -0.173182
  84 N :    0.157401
  85 H :    0.007934
  86 H :    0.002119
  87 H :   -0.005441
  88 H :   -0.004507
  89 H :    0.000843
  90 H :    0.040526
  91 H :    0.020851
  92 H :    0.021184
  93 H :    0.020253
  94 H :    0.035964
  95 H :   -0.006989
  96 H :    0.006024
  97 H :    0.000937
  98 H :   -0.002459
Sum of atomic charges:   -0.0000000

LOEWDIN ATOMIC CHARGES
----------------------
   0 C :   -0.028983
   1 C :    0.067094
   2 F :   -0.047998
   3 C :    0.068455
   4 F :   -0.048384
   5 C :   -0.032370
   6 C :   -0.008021
   7 C :   -0.006282
   8 C :    0.018367
   9 C :   -0.024272
  10 C :   -0.052746
  11 C :    0.032367
  12 C :    0.086986
  13 O :   -0.133946
  14 C :   -0.095201
  15 C :    0.077019
  16 C :   -0.141092
  17 C :   -0.023439
  18 N :   -0.051656
  19 C :   -0.016816
  20 N :   -0.052509
  21 C :    0.043318
  22 C :   -0.173592
  23 C :    0.016656
  24 C :   -0.070128
  25 C :   -0.160683
  26 S :    0.503770
  27 C :   -0.180169
  28 C :   -0.059954
  29 C :    0.073838
  30 C :   -0.092366
  31 C :   -0.015846
  32 N :   -0.028918
  33 C :   -0.023794
  34 N :   -0.013739
  35 C :   -0.012162
  36 C :   -0.172747
  37 S :    0.525863
  38 C :   -0.027170
  39 N :   -0.061173
  40 N :   -0.063220
  41 C :   -0.025056
  42 C :   -0.053732
  43 C :   -0.053507
  44 N :   -0.261941
  45 S :    0.700134
  46 N :   -0.261860
  47 C :   -0.175116
  48 C :   -0.009454
  49 C :   -0.062142
  50 C :   -0.176173
  51 S :    0.527995
  52 C :   -0.154491
  53 C :   -0.066435
  54 C :    0.078688
  55 C :   -0.095322
  56 C :   -0.017539
  57 N :   -0.026221
  58 C :   -0.016728
  59 N :   -0.027542
  60 C :    0.014417
  61 C :   -0.176151
  62 S :    0.513246
  63 C :    0.052325
  64 C :   -0.097794
  65 C :    0.083511
  66 O :   -0.137422
  67 C :   -0.054452
  68 C :    0.032483
  69 C :   -0.008958
  70 C :   -0.005384
  71 C :   -0.029851
  72 C :    0.068099
  73 C :    0.067970
  74 C :   -0.032018
  75 F :   -0.047594
  76 F :   -0.046950
  77 C :    0.014850
  78 C :   -0.020895
  79 C :    0.059717
  80 C :   -0.141453
  81 C :   -0.036320
  82 N :   -0.045912
  83 C :   -0.020232
  84 N :   -0.046802
  85 H :    0.047911
  86 H :    0.045828
  87 H :    0.040044
  88 H :    0.042278
  89 H :    0.042303
  90 H :    0.043279
  91 H :    0.041581
  92 H :    0.041882
  93 H :    0.048017
  94 H :    0.056098
  95 H :    0.041603
  96 H :    0.047458
  97 H :    0.045448
  98 H :    0.039921

  Mayer bond orders larger than 0.100000
B(  0-C ,  1-C ) :   1.4419 B(  0-C ,  5-C ) :   0.1082 B(  0-C ,  7-C ) :   1.1891
B(  0-C , 85-H ) :   1.0065 B(  1-C ,  2-F ) :   1.1361 B(  1-C ,  3-C ) :   1.1904
B(  3-C ,  4-F ) :   1.1342 B(  3-C ,  5-C ) :   1.4442 B(  5-C ,  6-C ) :   1.1909
B(  5-C , 86-H ) :   1.0072 B(  6-C ,  7-C ) :   1.2547 B(  6-C , 11-C ) :   1.1874
B(  7-C ,  8-C ) :   1.2198 B(  8-C ,  9-C ) :   1.4481 B(  8-C , 87-H ) :   0.9885
B(  9-C , 10-C ) :   1.2227 B(  9-C , 15-C ) :   0.9799 B( 10-C , 11-C ) :   1.4703
B( 10-C , 12-C ) :   0.9514 B( 11-C , 88-H ) :   1.0172 B( 12-C , 13-O ) :   2.1704
B( 12-C , 14-C ) :   0.9358 B( 14-C , 15-C ) :   1.0871 B( 14-C , 21-C ) :   1.5921
B( 15-C , 16-C ) :   1.6155 B( 16-C , 17-C ) :   1.1406 B( 16-C , 19-C ) :   1.1524
B( 17-C , 18-N ) :   2.9551 B( 19-C , 20-N ) :   2.9580 B( 21-C , 22-C ) :   1.2224
B( 21-C , 89-H ) :   0.9024 B( 22-C , 23-C ) :   1.3939 B( 22-C , 26-S ) :   1.0814
B( 23-C , 24-C ) :   1.3121 B( 23-C , 90-H ) :   0.9679 B( 24-C , 25-C ) :   1.3818
B( 24-C , 29-C ) :   0.9920 B( 25-C , 26-S ) :   1.1677 B( 25-C , 27-C ) :   1.2013
B( 27-C , 28-C ) :   1.4245 B( 27-C , 37-S ) :   1.1186 B( 28-C , 29-C ) :   0.9959
B( 28-C , 35-C ) :   1.2701 B( 29-C , 30-C ) :   1.7152 B( 30-C , 31-C ) :   1.1391
B( 30-C , 33-C ) :   1.1361 B( 31-C , 32-N ) :   2.9855 B( 33-C , 34-N ) :   2.9975
B( 35-C , 36-C ) :   1.4810 B( 35-C , 91-H ) :   0.9798 B( 36-C , 37-S ) :   1.0947
B( 36-C , 38-C ) :   1.1632 B( 38-C , 39-N ) :   1.7138 B( 38-C , 41-C ) :   0.1197
B( 38-C , 43-C ) :   1.1235 B( 39-N , 40-N ) :   1.2363 B( 40-N , 41-C ) :   1.7106
B( 41-C , 42-C ) :   1.1234 B( 41-C , 47-C ) :   1.1649 B( 42-C , 43-C ) :   1.1934
B( 42-C , 46-N ) :   1.5443 B( 43-C , 44-N ) :   1.5449 B( 44-N , 45-S ) :   1.2805
B( 44-N , 46-N ) :   0.1411 B( 45-S , 46-N ) :   1.2815 B( 47-C , 48-C ) :   1.4795
B( 47-C , 51-S ) :   1.0933 B( 48-C , 49-C ) :   1.2722 B( 48-C , 92-H ) :   0.9810
B( 49-C , 50-C ) :   1.4227 B( 49-C , 54-C ) :   0.9985 B( 50-C , 51-S ) :   1.1225
B( 50-C , 52-C ) :   1.2063 B( 52-C , 53-C ) :   1.4090 B( 52-C , 62-S ) :   1.1547
B( 53-C , 54-C ) :   0.9891 B( 53-C , 60-C ) :   1.3034 B( 54-C , 55-C ) :   1.7186
B( 55-C , 56-C ) :   1.1310 B( 55-C , 58-C ) :   1.1371 B( 56-C , 57-N ) :   2.9938
B( 58-C , 59-N ) :   2.9876 B( 60-C , 61-C ) :   1.4005 B( 60-C , 93-H ) :   1.0008
B( 61-C , 62-S ) :   1.0921 B( 61-C , 63-C ) :   1.1333 B( 63-C , 64-C ) :   1.6451
B( 63-C , 94-H ) :   0.9477 B( 64-C , 65-C ) :   0.9369 B( 64-C , 79-C ) :   1.0329
B( 65-C , 66-O ) :   2.2786 B( 65-C , 67-C ) :   0.9167 B( 67-C , 68-C ) :   1.4745
B( 67-C , 78-C ) :   1.2228 B( 68-C , 69-C ) :   1.1945 B( 68-C , 95-H ) :   1.0166
B( 69-C , 70-C ) :   1.2584 B( 69-C , 74-C ) :   1.1934 B( 70-C , 71-C ) :   1.1887
B( 70-C , 77-C ) :   1.2157 B( 71-C , 72-C ) :   1.4421 B( 71-C , 74-C ) :   0.1084
B( 71-C , 96-H ) :   1.0070 B( 72-C , 73-C ) :   1.1903 B( 72-C , 76-F ) :   1.1356
B( 73-C , 74-C ) :   1.4433 B( 73-C , 75-F ) :   1.1355 B( 74-C , 97-H ) :   1.0071
B( 77-C , 78-C ) :   1.4548 B( 77-C , 98-H ) :   0.9949 B( 78-C , 79-C ) :   1.0024
B( 79-C , 80-C ) :   1.6599 B( 80-C , 81-C ) :   1.1521 B( 80-C , 83-C ) :   1.1331
B( 81-C , 82-N ) :   3.0193 B( 83-C , 84-N ) :   2.9914

-----------------------------------------------------------------------------
         ABSORPTION SPECTRUM VIA TRANSITION ELECTRIC DIPOLE MOMENTS
-----------------------------------------------------------------------------
State   Energy  Wavelength   fosc         T2         TX        TY        TZ
        (cm-1)    (nm)                  (au**2)     (au)      (au)      (au)
-----------------------------------------------------------------------------
   0   13633.0    733.5   1.066694156  25.75879  -1.58503  -4.55180  -1.58984
   1   15249.9    655.7   0.154398968   3.33313  -0.50620   1.69211  -0.46224
   2   18442.1    542.2   0.836672956  14.93552  -1.11746  -3.50649  -1.17953
   3   20586.8    485.7   0.002016061   0.03224  -0.10075  -0.12288  -0.08360
   4   21125.2    473.4   0.544008262   8.47774  -1.83952   1.73419  -1.44447
   5   22023.0    454.1   0.034929202   0.52214   0.56492   0.33443   0.30193
   6   22842.1    437.8   0.333309261   4.80381   0.00835   2.16434  -0.34550
   7   24470.2    408.7   0.029341369   0.39475  -0.06457  -0.08679  -0.61891
   8   25556.6    391.3   0.046123995   0.59416   0.13894  -0.13834   0.74546
   9   25871.7    386.5   0.053748582   0.68394  -0.29563  -0.64362  -0.42697
  10   27288.4    366.5   0.028020511   0.33804   0.05815  -0.56698  -0.11487
  11   27538.7    363.1   0.005494000   0.06568  -0.10511   0.18462   0.14333
  12   27631.4    361.9   0.004424404   0.05271   0.11853   0.19508  -0.02469
  13   28155.0    355.2   0.008816080   0.10309   0.10789  -0.26983   0.13652
  14   28708.3    348.3   0.140259694   1.60842   0.51001  -0.48716   1.05404
  15   28813.6    347.1   0.107021280   1.22278   0.37129  -0.21361   1.01946
  16   28900.9    346.0   0.006970100   0.07940  -0.18580   0.12834  -0.16853
  17   28974.6    345.1   0.026833746   0.30489   0.24007   0.08732   0.48952
  18   29037.9    344.4   0.015113154   0.17134   0.04657  -0.39899   0.09992
  19   29570.6    338.2   0.026033466   0.28983   0.37870   0.11017   0.36644
  20   29927.6    334.1   0.714061240   7.85487   1.10069   1.65555   1.97548
  21   30606.9    326.7   0.040426415   0.43483   0.36180   0.45908   0.30524
  22   30637.3    326.4   0.005383041   0.05784  -0.14331  -0.12375  -0.14830
  23   30871.7    323.9   0.095271527   1.01596   0.47502  -0.88028   0.12420
  24   31053.2    322.0   0.239112718   2.53496   0.95010   0.07740   1.27526
  25   31565.2    316.8   0.424250564   4.42475  -0.48096  -1.89358  -0.77961
  26   31676.7    315.7   0.286918306   2.98191   0.71826   0.11730   1.56597
  27   32083.4    311.7   0.151514234   1.55471  -0.71802   0.47459  -0.90217
  28   32206.1    310.5   0.180357304   1.84362   0.16580  -0.95508   0.95076
  29   32687.2    305.9   0.016757442   0.16877   0.11991  -0.35946   0.15870
  30   32851.9    304.4   0.052358875   0.52469  -0.16723  -0.12839  -0.69300
  31   32972.9    303.3   0.471223589   4.70484   0.67789   1.57358   1.33010
  32   33325.9    300.1   0.042627325   0.42110   0.19145   0.59999   0.15640
  33   33533.0    298.2   0.120804834   1.18601  -0.47553  -0.47046  -0.85939
  34   33578.5    297.8   0.086741661   0.85044   0.25599  -0.37157   0.80426
  35   33635.7    297.3   0.001101574   0.01078  -0.00221   0.08677  -0.05699
  36   34055.1    293.6   0.003435536   0.03321  -0.06318  -0.16854  -0.02854
  37   34307.8    291.5   0.113410112   1.08827   0.07112  -0.87792  -0.55899
  38   34560.7    289.3   0.344837717   3.28479   0.03797   1.79541  -0.24463
  39   34885.5    286.7   0.578852377   5.46258   1.21522   0.46374   1.94185
  40   35013.4    285.6   0.203174136   1.91034  -0.75110  -0.10935  -1.15509
  41   35237.0    283.8   0.047889173   0.44742   0.10279  -0.46496   0.46975
  42   35520.3    281.5   0.034490738   0.31967   0.13761  -0.36487  -0.40940
  43   35790.4    279.4   0.052942661   0.48698   0.13985  -0.35195   0.58613
  44   36016.4    277.7   0.372059381   3.40085   0.40333   0.01603   1.79942
  45   36627.5    273.0   0.066662900   0.59917   0.09336   0.62073   0.45293
  46   36857.5    271.3   0.086711052   0.77450   0.49193   0.49606   0.53520
  47   37083.4    269.7   0.075203325   0.66763   0.50546  -0.35330   0.53602
  48   37237.0    268.6   0.023736794   0.20986   0.10972  -0.32601  -0.30255
  49   37352.1    267.7   0.014013796   0.12351   0.33401  -0.10748  -0.01995
  50   37370.7    267.6   0.011875312   0.10461  -0.07390   0.18133  -0.25744
  51   37410.5    267.3   0.026196579   0.23053   0.05182  -0.46665   0.10040
  52   37725.3    265.1   0.005249107   0.04581   0.13855   0.13831   0.08650
  53   37988.1    263.2   0.054744202   0.47442   0.39244   0.19073   0.53295
  54   38067.1    262.7   0.031899007   0.27587  -0.03657  -0.45926  -0.25222
  55   38128.6    262.3   0.009401016   0.08117   0.07799   0.22407   0.15773
  56   38280.0    261.2   0.046154062   0.39693   0.27616  -0.31933   0.46765
  57   38386.5    260.5   0.007595462   0.06514  -0.11817   0.12352  -0.18953
  58   38461.4    260.0   0.053763311   0.46019   0.39308  -0.43372   0.34288
  59   38562.6    259.3   0.037198458   0.31757   0.04603  -0.51671   0.22014
  60   38874.4    257.2   0.015170441   0.12847   0.15455  -0.25030   0.20479
  61   38956.0    256.7   0.015797521   0.13350  -0.02820  -0.14445   0.33443
  62   39109.2    255.7   0.015425680   0.12985   0.11363  -0.04831   0.33853
  63   39291.5    254.5   0.031780444   0.26628  -0.14160   0.47456  -0.14497
  64   39441.9    253.5   0.107955911   0.90108  -0.70215   0.24572  -0.58966
  65   39669.3    252.1   0.005555364   0.04610   0.09438   0.18945  -0.03615
  66   39729.9    251.7   0.143509466   1.18915  -0.32215   0.98772  -0.33133
  67   39750.5    251.6   0.094740687   0.78464   0.15355  -0.82024  -0.29711
  68   40228.1    248.6   0.012122898   0.09921   0.05018  -0.30803  -0.04255

FINAL SINGLE POINT ENERGY     -5563.560657427352

DIPOLE MOMENT
-------------
                                X             Y             Z
Electronic contribution:     -0.51417       6.94535      -2.50566
Nuclear contribution   :      1.78897      -7.79104       1.37881
                        -----------------------------------------
Total Dipole Moment    :      1.27480      -0.84569      -1.12685
                        -----------------------------------------
Magnitude (a.u.)       :      1.90003
Magnitude (Debye)      :      4.82949

Rotational constants in cm-1:     0.001055     0.000143     0.000127
Rotational constants in MHz :    31.621526     4.272930     3.796487

                             ****ORCA TERMINATED NORMALLY****
TOTAL RUN TIME: 0 days 0 hours 11 minutes 25 seconds 138 msec
