                         Program Version 4.2.0 -  RELEASE  -
|  1> # ORCA input file
|  2> # SCF done       -229.170523737331          0.000457438513
|  3> ! CAM-B3LYP def2-SVP def2/J RIJCOSX Grid4 TightSCF
|  4> %maxcore 5000
|  5> %tddft
|  6>     Mode sTDDFT
|  7>     Ethresh 5.0
|  8>     maxcore 5000
|  9> end
| 10>
| 11> %pal
| 12>   nprocs 6
| 13>   end
| 14> * xyz 0 1
| 15>    C       -3.60789         2.19941        -3.43352
| 16>    C       -3.49562         2.45623        -4.77140
| 17>    F       -3.37155         3.71626        -5.20675
| 18>    C       -3.50903         1.40307        -5.70804
| 19>    F       -3.39715         1.68418        -7.01276
| 20>    C       -3.63523         0.10676        -5.29337
| 21>    C       -3.75365        -0.18958        -3.92175
| 22>    C       -3.73919         0.87390        -2.97325
| 23>    C       -3.85584         0.60085        -1.59044
| 24>    C       -3.98549        -0.69599        -1.16853
| 25>    C       -4.00398        -1.74943        -2.12491
| 26>    C       -3.88993        -1.51922        -3.46547
| 27>    C       -4.16790        -3.03188        -1.42340
| 28>    O       -4.21119        -4.13576        -1.94032
| 29>    C       -4.27532        -2.71219         0.00331
| 30>    C       -4.12424        -1.27727         0.16596
| 31>    C       -4.08711        -0.57106         1.33952
| 32>    C       -4.18048        -1.11995         2.63619
| 33>    N       -4.23987        -1.48798         3.72236
| 34>    C       -3.92900         0.82965         1.41166
| 35>    N       -3.80445         1.96346         1.53907
| 36>    C       -4.52855        -3.61725         1.00386
| 37>    C       -4.70838        -5.00706         0.94562
| 38>    C       -5.02240        -5.75847         2.08679
| 39>    C       -5.16945        -7.10344         1.81169
| 40>    C       -4.95290        -7.39457         0.44183
| 41>    S       -4.58835        -6.02148        -0.49340
| 42>    C       -5.13620        -8.78603         0.25498
| 43>    C       -5.46739        -9.37221         1.49249
| 44>    C       -5.49933        -8.33678         2.51086
| 45>    C       -5.79322        -8.49818         3.83297
| 46>    C       -6.11324        -9.76081         4.37599
| 47>    N       -6.37680       -10.78619         4.81700
| 48>    C       -5.80570        -7.41715         4.73998
| 49>    N       -5.81995        -6.54176         5.47983
| 50>    C       -5.68110       -10.74340         1.40147
| 51>    C       -5.51621       -11.20563         0.10577
| 52>    S       -5.08387        -9.92384        -1.01210
| 53>    C       -5.69282       -12.55778        -0.32122
| 54>    C       -5.51942       -12.99665        -1.62938
| 55>    F       -5.13650       -12.11884        -2.57508
| 56>    C       -5.72739       -14.31751        -2.03984
| 57>    F       -5.52329       -14.58876        -3.34252
| 58>    C       -6.13496       -15.33812        -1.18735
| 59>    C       -6.30301       -14.92657         0.15926
| 60>    C       -6.08691       -13.58079         0.57820
| 61>    N       -6.33322       -13.53503         1.89489
| 62>    N       -6.66300       -14.75302         2.21263
| 63>    N       -6.66783       -15.62342         1.24442
| 64>    C       -6.99009       -15.11225         3.55716
| 65>    C       -6.38456       -16.68183        -1.60408
| 66>    C       -6.83215       -17.71031        -0.78944
| 67>    C       -7.00101       -18.89521        -1.49752
| 68>    C       -6.67443       -18.76688        -2.86118
| 69>    S       -6.16637       -17.19242        -3.26764
| 70>    C       -6.88914       -20.01559        -3.49072
| 71>    C       -7.34776       -20.93840        -2.52717
| 72>    C       -7.43311       -20.26101        -1.24331
| 73>    C       -7.83343       -20.78612        -0.05023
| 74>    C       -8.22469       -22.13565         0.08319
| 75>    N       -8.53485       -23.23342         0.19600
| 76>    C       -7.87633       -20.01467         1.13098
| 77>    N       -7.91233       -19.39273         2.09363
| 78>    C       -7.57589       -22.20123        -3.06075
| 79>    C       -7.33309       -22.24953        -4.42684
| 80>    S       -6.75851       -20.69875        -5.04105
| 81>    C       -7.41265       -23.40299        -5.23768
| 82>    C       -7.42089       -23.50920        -6.59535
| 83>    C       -6.99604       -24.78841        -7.23022
| 84>    O       -6.87326       -25.86099        -6.68799
| 85>    C       -6.69354       -24.43620        -8.63347
| 86>    C       -6.13442       -25.20779        -9.61084
| 87>    C       -5.89984       -24.64017       -10.88361
| 88>    C       -6.24843       -23.27810       -11.11875
| 89>    C       -6.00145       -22.71646       -12.38750
| 90>    C       -5.43743       -23.47158       -13.37711
| 91>    C       -5.09479       -24.81889       -13.14430
| 92>    C       -5.32126       -25.39234       -11.92450
| 93>    F       -4.54145       -25.53453       -14.13208
| 94>    F       -5.20299       -22.93598       -14.58176
| 95>    C       -6.83607       -22.50613       -10.09049
| 96>    C       -7.05920       -23.07965        -8.86800
| 97>    C       -7.66440       -22.54898        -7.64982
| 98>    C       -8.53983       -21.49585        -7.59695
| 99>    C       -9.31759       -21.19831        -6.45913
|100>    N       -9.98821       -20.95975        -5.55844
|101>    C       -8.82364       -20.65948        -8.69522
|102>    N       -9.07051       -19.94380        -9.55771
|103>    H       -3.59523         3.01761        -2.73049
|104>    H       -3.64424        -0.68838        -6.02234
|105>    H       -3.84265         1.42947        -0.90144
|106>    H       -3.90588        -2.33960        -4.16675
|107>    H       -4.62801        -3.22206         2.00774
|108>    H       -5.13431        -5.30603         3.05649
|109>    H       -5.94662       -11.39838         2.21002
|110>    H       -7.07572       -14.19789         4.14010
|111>    H       -6.20613       -15.74641         3.97329
|112>    H       -7.92629       -15.66903         3.56790
|113>    H       -7.01715       -17.56575         0.25875
|114>    H       -7.92769       -23.05359        -2.50784
|115>    H       -7.37138       -24.34721        -4.70219
|116>    H       -5.87243       -26.23656        -9.41614
|117>    H       -6.26123       -21.68791       -12.58352
|118>    H       -5.05301       -26.42456       -11.76243
|119>    H       -7.08382       -21.47558       -10.28995
|120> *
|121>
|122>                          ****END OF INPUT****

CARTESIAN COORDINATES (ANGSTROEM)
---------------------------------
  C     -3.607890    2.199410   -3.433520
  C     -3.495620    2.456230   -4.771400
  F     -3.371550    3.716260   -5.206750
  C     -3.509030    1.403070   -5.708040
  F     -3.397150    1.684180   -7.012760
  C     -3.635230    0.106760   -5.293370
  C     -3.753650   -0.189580   -3.921750
  C     -3.739190    0.873900   -2.973250
  C     -3.855840    0.600850   -1.590440
  C     -3.985490   -0.695990   -1.168530
  C     -4.003980   -1.749430   -2.124910
  C     -3.889930   -1.519220   -3.465470
  C     -4.167900   -3.031880   -1.423400
  O     -4.211190   -4.135760   -1.940320
  C     -4.275320   -2.712190    0.003310
  C     -4.124240   -1.277270    0.165960
  C     -4.087110   -0.571060    1.339520
  C     -4.180480   -1.119950    2.636190
  N     -4.239870   -1.487980    3.722360
  C     -3.929000    0.829650    1.411660
  N     -3.804450    1.963460    1.539070
  C     -4.528550   -3.617250    1.003860
  C     -4.708380   -5.007060    0.945620
  C     -5.022400   -5.758470    2.086790
  C     -5.169450   -7.103440    1.811690
  C     -4.952900   -7.394570    0.441830
  S     -4.588350   -6.021480   -0.493400
  C     -5.136200   -8.786030    0.254980
  C     -5.467390   -9.372210    1.492490
  C     -5.499330   -8.336780    2.510860
  C     -5.793220   -8.498180    3.832970
  C     -6.113240   -9.760810    4.375990
  N     -6.376800  -10.786190    4.817000
  C     -5.805700   -7.417150    4.739980
  N     -5.819950   -6.541760    5.479830
  C     -5.681100  -10.743400    1.401470
  C     -5.516210  -11.205630    0.105770
  S     -5.083870   -9.923840   -1.012100
  C     -5.692820  -12.557780   -0.321220
  C     -5.519420  -12.996650   -1.629380
  F     -5.136500  -12.118840   -2.575080
  C     -5.727390  -14.317510   -2.039840
  F     -5.523290  -14.588760   -3.342520
  C     -6.134960  -15.338120   -1.187350
  C     -6.303010  -14.926570    0.159260
  C     -6.086910  -13.580790    0.578200
  N     -6.333220  -13.535030    1.894890
  N     -6.663000  -14.753020    2.212630
  N     -6.667830  -15.623420    1.244420
  C     -6.990090  -15.112250    3.557160
  C     -6.384560  -16.681830   -1.604080
  C     -6.832150  -17.710310   -0.789440
  C     -7.001010  -18.895210   -1.497520
  C     -6.674430  -18.766880   -2.861180
  S     -6.166370  -17.192420   -3.267640
  C     -6.889140  -20.015590   -3.490720
  C     -7.347760  -20.938400   -2.527170
  C     -7.433110  -20.261010   -1.243310
  C     -7.833430  -20.786120   -0.050230
  C     -8.224690  -22.135650    0.083190
  N     -8.534850  -23.233420    0.196000
  C     -7.876330  -20.014670    1.130980
  N     -7.912330  -19.392730    2.093630
  C     -7.575890  -22.201230   -3.060750
  C     -7.333090  -22.249530   -4.426840
  S     -6.758510  -20.698750   -5.041050
  C     -7.412650  -23.402990   -5.237680
  C     -7.420890  -23.509200   -6.595350
  C     -6.996040  -24.788410   -7.230220
  O     -6.873260  -25.860990   -6.687990
  C     -6.693540  -24.436200   -8.633470
  C     -6.134420  -25.207790   -9.610840
  C     -5.899840  -24.640170  -10.883610
  C     -6.248430  -23.278100  -11.118750
  C     -6.001450  -22.716460  -12.387500
  C     -5.437430  -23.471580  -13.377110
  C     -5.094790  -24.818890  -13.144300
  C     -5.321260  -25.392340  -11.924500
  F     -4.541450  -25.534530  -14.132080
  F     -5.202990  -22.935980  -14.581760
  C     -6.836070  -22.506130  -10.090490
  C     -7.059200  -23.079650   -8.868000
  C     -7.664400  -22.548980   -7.649820
  C     -8.539830  -21.495850   -7.596950
  C     -9.317590  -21.198310   -6.459130
  N     -9.988210  -20.959750   -5.558440
  C     -8.823640  -20.659480   -8.695220
  N     -9.070510  -19.943800   -9.557710
  H     -3.595230    3.017610   -2.730490
  H     -3.644240   -0.688380   -6.022340
  H     -3.842650    1.429470   -0.901440
  H     -3.905880   -2.339600   -4.166750
  H     -4.628010   -3.222060    2.007740
  H     -5.134310   -5.306030    3.056490
  H     -5.946620  -11.398380    2.210020
  H     -7.075720  -14.197890    4.140100
  H     -6.206130  -15.746410    3.973290
  H     -7.926290  -15.669030    3.567900
  H     -7.017150  -17.565750    0.258750
  H     -7.927690  -23.053590   -2.507840
  H     -7.371380  -24.347210   -4.702190
  H     -5.872430  -26.236560   -9.416140
  H     -6.261230  -21.687910  -12.583520
  H     -5.053010  -26.424560  -11.762430
  H     -7.083820  -21.475580  -10.289950

 Total Charge           Charge          ....    0
 Multiplicity           Mult            ....    1
 Number of Electrons    NEL             ....  618
 Basis Dimension        Dim             .... 1333

ORBITAL ENERGIES
----------------

  NO   OCC          E(Eh)            E(eV)
   0   2.0000     -89.001748     -2421.8607
   1   2.0000     -88.999872     -2421.8096
   2   2.0000     -88.998615     -2421.7754
   3   2.0000     -88.995575     -2421.6927
   4   2.0000     -24.823083      -675.4704
   5   2.0000     -24.822827      -675.4635
   6   2.0000     -24.802067      -674.8986
   7   2.0000     -24.801946      -674.8953
   8   2.0000     -24.801537      -674.8841
   9   2.0000     -24.800989      -674.8692
  10   2.0000     -19.231009      -523.3024
  11   2.0000     -19.220906      -523.0274
  12   2.0000     -14.566418      -396.3724
  13   2.0000     -14.468769      -393.7152
  14   2.0000     -14.467730      -393.6870
  15   2.0000     -14.437457      -392.8632
  16   2.0000     -14.437077      -392.8528
  17   2.0000     -14.436939      -392.8491
  18   2.0000     -14.434425      -392.7807
  19   2.0000     -14.423181      -392.4747
  20   2.0000     -14.422012      -392.4429
  21   2.0000     -14.421702      -392.4345
  22   2.0000     -14.418897      -392.3581
  23   2.0000     -10.398170      -282.9486
  24   2.0000     -10.397704      -282.9359
  25   2.0000     -10.385494      -282.6037
  26   2.0000     -10.385432      -282.6020
  27   2.0000     -10.385053      -282.5917
  28   2.0000     -10.384736      -282.5830
  29   2.0000     -10.378836      -282.4225
  30   2.0000     -10.373234      -282.2700
  31   2.0000     -10.372759      -282.2571
  32   2.0000     -10.370578      -282.1978
  33   2.0000     -10.360349      -281.9194
  34   2.0000     -10.359085      -281.8850
  35   2.0000     -10.351349      -281.6745
  36   2.0000     -10.351102      -281.6678
  37   2.0000     -10.350049      -281.6392
  38   2.0000     -10.347725      -281.5759
  39   2.0000     -10.347080      -281.5584
  40   2.0000     -10.340389      -281.3763
  41   2.0000     -10.340243      -281.3723
  42   2.0000     -10.339962      -281.3647
  43   2.0000     -10.339097      -281.3411
  44   2.0000     -10.337726      -281.3038
  45   2.0000     -10.337552      -281.2991
  46   2.0000     -10.337280      -281.2917
  47   2.0000     -10.336840      -281.2797
  48   2.0000     -10.336399      -281.2677
  49   2.0000     -10.335593      -281.2458
  50   2.0000     -10.334923      -281.2275
  51   2.0000     -10.334802      -281.2243
  52   2.0000     -10.334490      -281.2158
  53   2.0000     -10.334186      -281.2075
  54   2.0000     -10.333693      -281.1941
  55   2.0000     -10.332857      -281.1713
  56   2.0000     -10.332134      -281.1517
  57   2.0000     -10.331587      -281.1368
  58   2.0000     -10.325562      -280.9728
  59   2.0000     -10.324061      -280.9320
  60   2.0000     -10.323681      -280.9216
  61   2.0000     -10.321933      -280.8741
  62   2.0000     -10.320452      -280.8338
  63   2.0000     -10.319457      -280.8067
  64   2.0000     -10.315384      -280.6959
  65   2.0000     -10.315021      -280.6860
  66   2.0000     -10.314935      -280.6837
  67   2.0000     -10.314723      -280.6779
  68   2.0000     -10.314425      -280.6698
  69   2.0000     -10.314307      -280.6666
  70   2.0000     -10.313636      -280.6483
  71   2.0000     -10.313574      -280.6466
  72   2.0000     -10.312281      -280.6114
  73   2.0000     -10.311634      -280.5938
  74   2.0000     -10.308353      -280.5045
  75   2.0000     -10.307904      -280.4923
  76   2.0000     -10.307663      -280.4858
  77   2.0000     -10.306856      -280.4638
  78   2.0000     -10.305837      -280.4361
  79   2.0000     -10.305685      -280.4319
  80   2.0000     -10.305479      -280.4264
  81   2.0000     -10.305299      -280.4214
  82   2.0000     -10.305221      -280.4193
  83   2.0000     -10.304804      -280.4080
  84   2.0000     -10.304604      -280.4025
  85   2.0000     -10.304357      -280.3958
  86   2.0000     -10.299274      -280.2575
  87   2.0000     -10.298837      -280.2456
  88   2.0000      -8.095992      -220.3031
  89   2.0000      -8.093889      -220.2459
  90   2.0000      -8.092648      -220.2121
  91   2.0000      -8.087864      -220.0820
  92   2.0000      -6.065222      -165.0431
  93   2.0000      -6.063170      -164.9872
  94   2.0000      -6.061939      -164.9538
  95   2.0000      -6.061000      -164.9282
  96   2.0000      -6.058784      -164.8679
  97   2.0000      -6.058429      -164.8582
  98   2.0000      -6.057507      -164.8331
  99   2.0000      -6.057295      -164.8274
 100   2.0000      -6.056382      -164.8025
 101   2.0000      -6.055169      -164.7695
 102   2.0000      -6.052497      -164.6968
 103   2.0000      -6.050429      -164.6405
 104   2.0000      -1.345536       -36.6139
 105   2.0000      -1.328216       -36.1426
 106   2.0000      -1.324812       -36.0500
 107   2.0000      -1.324661       -36.0459
 108   2.0000      -1.309950       -35.6456
 109   2.0000      -1.309764       -35.6405
 110   2.0000      -1.246387       -33.9159
 111   2.0000      -1.146830       -31.2068
 112   2.0000      -1.136961       -30.9383
 113   2.0000      -1.055758       -28.7286
 114   2.0000      -1.052644       -28.6439
 115   2.0000      -1.029882       -28.0245
 116   2.0000      -1.027936       -27.9716
 117   2.0000      -1.027419       -27.9575
 118   2.0000      -1.025160       -27.8960
 119   2.0000      -1.021438       -27.7947
 120   2.0000      -1.020229       -27.7619
 121   2.0000      -1.014440       -27.6043
 122   2.0000      -1.012896       -27.5623
 123   2.0000      -1.009655       -27.4741
 124   2.0000      -1.009486       -27.4695
 125   2.0000      -1.007002       -27.4019
 126   2.0000      -1.001872       -27.2623
 127   2.0000      -0.999512       -27.1981
 128   2.0000      -0.998796       -27.1786
 129   2.0000      -0.987138       -26.8614
 130   2.0000      -0.986649       -26.8481
 131   2.0000      -0.969436       -26.3797
 132   2.0000      -0.966762       -26.3069
 133   2.0000      -0.949182       -25.8286
 134   2.0000      -0.939239       -25.5580
 135   2.0000      -0.938309       -25.5327
 136   2.0000      -0.931216       -25.3397
 137   2.0000      -0.924029       -25.1441
 138   2.0000      -0.912508       -24.8306
 139   2.0000      -0.906387       -24.6640
 140   2.0000      -0.899786       -24.4844
 141   2.0000      -0.897385       -24.4191
 142   2.0000      -0.895721       -24.3738
 143   2.0000      -0.885075       -24.0841
 144   2.0000      -0.884307       -24.0632
 145   2.0000      -0.876070       -23.8391
 146   2.0000      -0.867972       -23.6187
 147   2.0000      -0.865054       -23.5393
 148   2.0000      -0.863445       -23.4955
 149   2.0000      -0.845729       -23.0135
 150   2.0000      -0.845458       -23.0061
 151   2.0000      -0.844484       -22.9796
 152   2.0000      -0.827867       -22.5274
 153   2.0000      -0.823344       -22.4043
 154   2.0000      -0.806680       -21.9509
 155   2.0000      -0.787965       -21.4416
 156   2.0000      -0.785206       -21.3665
 157   2.0000      -0.782674       -21.2976
 158   2.0000      -0.774075       -21.0637
 159   2.0000      -0.772048       -21.0085
 160   2.0000      -0.766204       -20.8495
 161   2.0000      -0.761234       -20.7142
 162   2.0000      -0.746713       -20.3191
 163   2.0000      -0.745043       -20.2737
 164   2.0000      -0.730874       -19.8881
 165   2.0000      -0.726888       -19.7796
 166   2.0000      -0.722977       -19.6732
 167   2.0000      -0.720071       -19.5941
 168   2.0000      -0.714235       -19.4353
 169   2.0000      -0.710461       -19.3326
 170   2.0000      -0.701014       -19.0756
 171   2.0000      -0.696749       -18.9595
 172   2.0000      -0.695143       -18.9158
 173   2.0000      -0.691569       -18.8185
 174   2.0000      -0.688663       -18.7395
 175   2.0000      -0.686945       -18.6927
 176   2.0000      -0.678351       -18.4589
 177   2.0000      -0.672824       -18.3085
 178   2.0000      -0.668120       -18.1805
 179   2.0000      -0.661375       -17.9969
 180   2.0000      -0.658595       -17.9213
 181   2.0000      -0.655424       -17.8350
 182   2.0000      -0.653326       -17.7779
 183   2.0000      -0.647296       -17.6138
 184   2.0000      -0.646792       -17.6001
 185   2.0000      -0.641981       -17.4692
 186   2.0000      -0.641657       -17.4604
 187   2.0000      -0.637237       -17.3401
 188   2.0000      -0.633816       -17.2470
 189   2.0000      -0.628700       -17.1078
 190   2.0000      -0.628399       -17.0996
 191   2.0000      -0.624351       -16.9895
 192   2.0000      -0.620812       -16.8932
 193   2.0000      -0.619575       -16.8595
 194   2.0000      -0.618439       -16.8286
 195   2.0000      -0.607323       -16.5261
 196   2.0000      -0.600267       -16.3341
 197   2.0000      -0.599436       -16.3115
 198   2.0000      -0.596616       -16.2347
 199   2.0000      -0.590612       -16.0714
 200   2.0000      -0.589641       -16.0449
 201   2.0000      -0.589209       -16.0332
 202   2.0000      -0.589201       -16.0330
 203   2.0000      -0.583726       -15.8840
 204   2.0000      -0.579951       -15.7813
 205   2.0000      -0.578090       -15.7306
 206   2.0000      -0.571370       -15.5478
 207   2.0000      -0.564732       -15.3671
 208   2.0000      -0.562461       -15.3053
 209   2.0000      -0.559175       -15.2159
 210   2.0000      -0.557693       -15.1756
 211   2.0000      -0.556910       -15.1543
 212   2.0000      -0.555549       -15.1173
 213   2.0000      -0.552666       -15.0388
 214   2.0000      -0.550833       -14.9889
 215   2.0000      -0.550719       -14.9858
 216   2.0000      -0.548243       -14.9184
 217   2.0000      -0.547072       -14.8866
 218   2.0000      -0.543072       -14.7777
 219   2.0000      -0.539893       -14.6912
 220   2.0000      -0.536700       -14.6043
 221   2.0000      -0.535908       -14.5828
 222   2.0000      -0.534627       -14.5479
 223   2.0000      -0.532190       -14.4816
 224   2.0000      -0.529429       -14.4065
 225   2.0000      -0.527175       -14.3452
 226   2.0000      -0.524645       -14.2763
 227   2.0000      -0.521799       -14.1989
 228   2.0000      -0.521621       -14.1940
 229   2.0000      -0.518019       -14.0960
 230   2.0000      -0.516826       -14.0635
 231   2.0000      -0.515748       -14.0342
 232   2.0000      -0.513299       -13.9676
 233   2.0000      -0.511164       -13.9095
 234   2.0000      -0.510869       -13.9015
 235   2.0000      -0.508600       -13.8397
 236   2.0000      -0.507580       -13.8120
 237   2.0000      -0.505808       -13.7637
 238   2.0000      -0.503996       -13.7144
 239   2.0000      -0.501651       -13.6506
 240   2.0000      -0.499773       -13.5995
 241   2.0000      -0.498936       -13.5767
 242   2.0000      -0.497076       -13.5261
 243   2.0000      -0.495712       -13.4890
 244   2.0000      -0.493165       -13.4197
 245   2.0000      -0.488462       -13.2917
 246   2.0000      -0.487216       -13.2578
 247   2.0000      -0.483581       -13.1589
 248   2.0000      -0.481509       -13.1025
 249   2.0000      -0.475028       -12.9262
 250   2.0000      -0.472900       -12.8683
 251   2.0000      -0.469036       -12.7631
 252   2.0000      -0.468452       -12.7472
 253   2.0000      -0.467992       -12.7347
 254   2.0000      -0.467417       -12.7191
 255   2.0000      -0.464052       -12.6275
 256   2.0000      -0.461620       -12.5613
 257   2.0000      -0.461230       -12.5507
 258   2.0000      -0.456659       -12.4263
 259   2.0000      -0.455519       -12.3953
 260   2.0000      -0.454680       -12.3725
 261   2.0000      -0.452194       -12.3048
 262   2.0000      -0.451604       -12.2888
 263   2.0000      -0.450037       -12.2461
 264   2.0000      -0.448618       -12.2075
 265   2.0000      -0.448227       -12.1969
 266   2.0000      -0.447807       -12.1854
 267   2.0000      -0.447117       -12.1667
 268   2.0000      -0.446013       -12.1366
 269   2.0000      -0.445708       -12.1283
 270   2.0000      -0.445663       -12.1271
 271   2.0000      -0.444230       -12.0881
 272   2.0000      -0.439487       -11.9590
 273   2.0000      -0.438013       -11.9189
 274   2.0000      -0.435637       -11.8543
 275   2.0000      -0.433188       -11.7877
 276   2.0000      -0.432692       -11.7741
 277   2.0000      -0.432163       -11.7597
 278   2.0000      -0.432058       -11.7569
 279   2.0000      -0.431028       -11.7289
 280   2.0000      -0.424833       -11.5603
 281   2.0000      -0.421676       -11.4744
 282   2.0000      -0.419396       -11.4123
 283   2.0000      -0.417672       -11.3654
 284   2.0000      -0.413265       -11.2455
 285   2.0000      -0.411889       -11.2081
 286   2.0000      -0.407823       -11.0974
 287   2.0000      -0.404383       -11.0038
 288   2.0000      -0.395902       -10.7730
 289   2.0000      -0.393922       -10.7192
 290   2.0000      -0.392661       -10.6848
 291   2.0000      -0.381769       -10.3885
 292   2.0000      -0.379650       -10.3308
 293   2.0000      -0.361143        -9.8272
 294   2.0000      -0.356545        -9.7021
 295   2.0000      -0.355557        -9.6752
 296   2.0000      -0.348312        -9.4780
 297   2.0000      -0.346947        -9.4409
 298   2.0000      -0.345135        -9.3916
 299   2.0000      -0.339701        -9.2437
 300   2.0000      -0.331150        -9.0111
 301   2.0000      -0.328887        -8.9495
 302   2.0000      -0.322538        -8.7767
 303   2.0000      -0.322496        -8.7756
 304   2.0000      -0.316419        -8.6102
 305   2.0000      -0.306685        -8.3453
 306   2.0000      -0.303464        -8.2577
 307   2.0000      -0.281471        -7.6592
 308   2.0000      -0.257749        -7.0137
 309   0.0000      -0.123824        -3.3694
 310   0.0000      -0.114611        -3.1187
 311   0.0000      -0.096266        -2.6195
 312   0.0000      -0.095208        -2.5907
 313   0.0000      -0.074042        -2.0148

MULLIKEN ATOMIC CHARGES
-----------------------
   0 C :   -0.107988
   1 C :    0.241333
   2 F :   -0.169814
   3 C :    0.237728
   4 F :   -0.171142
   5 C :   -0.105078
   6 C :    0.116781
   7 C :    0.114115
   8 C :   -0.083465
   9 C :    0.048709
  10 C :   -0.004559
  11 C :   -0.080548
  12 C :    0.169738
  13 O :   -0.191374
  14 C :   -0.095513
  15 C :    0.329361
  16 C :   -0.348914
  17 C :   -0.194722
  18 N :    0.154056
  19 C :   -0.184188
  20 N :    0.150624
  21 C :   -0.027391
  22 C :   -0.054502
  23 C :   -0.058265
  24 C :    0.048732
  25 C :   -0.074063
  26 S :    0.245785
  27 C :   -0.096501
  28 C :    0.038747
  29 C :    0.309770
  30 C :   -0.299095
  31 C :   -0.183532
  32 N :    0.170949
  33 C :   -0.199486
  34 N :    0.187808
  35 C :   -0.069953
  36 C :   -0.128766
  37 S :    0.220960
  38 C :    0.101206
  39 C :    0.112027
  40 F :   -0.175908
  41 C :    0.112493
  42 F :   -0.176544
  43 C :    0.103189
  44 C :   -0.030866
  45 C :   -0.037525
  46 N :   -0.057190
  47 N :   -0.054217
  48 N :   -0.063685
  49 C :    0.136602
  50 C :   -0.129231
  51 C :   -0.071119
  52 C :    0.040047
  53 C :   -0.093473
  54 S :    0.219659
  55 C :   -0.082771
  56 C :    0.023673
  57 C :    0.305588
  58 C :   -0.296575
  59 C :   -0.193338
  60 N :    0.182760
  61 C :   -0.183798
  62 N :    0.171740
  63 C :    0.006354
  64 C :   -0.090172
  65 S :    0.207464
  66 C :    0.049022
  67 C :   -0.146074
  68 C :    0.143977
  69 O :   -0.137785
  70 C :    0.014530
  71 C :   -0.083521
  72 C :    0.112773
  73 C :    0.113598
  74 C :   -0.107018
  75 C :    0.241167
  76 C :    0.238990
  77 C :   -0.102186
  78 F :   -0.170991
  79 F :   -0.170180
  80 C :   -0.080888
  81 C :    0.036104
  82 C :    0.249447
  83 C :   -0.321277
  84 C :   -0.207713
  85 N :    0.170842
  86 C :   -0.171837
  87 N :    0.153472
  88 H :    0.010317
  89 H :    0.000458
  90 H :   -0.005484
  91 H :   -0.009621
  92 H :    0.017470
  93 H :    0.028591
  94 H :    0.021182
  95 H :    0.071182
  96 H :    0.063319
  97 H :    0.065398
  98 H :    0.020142
  99 H :    0.019666
 100 H :    0.034511
 101 H :   -0.007257
 102 H :    0.006158
 103 H :    0.000443
 104 H :   -0.003654
Sum of atomic charges:   -0.0000000

LOEWDIN ATOMIC CHARGES
----------------------
   0 C :   -0.028654
   1 C :    0.067220
   2 F :   -0.047611
   3 C :    0.067918
   4 F :   -0.048514
   5 C :   -0.033156
   6 C :   -0.009242
   7 C :   -0.006062
   8 C :    0.018681
   9 C :   -0.021778
  10 C :   -0.052943
  11 C :    0.030378
  12 C :    0.085692
  13 O :   -0.175899
  14 C :   -0.112230
  15 C :    0.075764
  16 C :   -0.139787
  17 C :   -0.023666
  18 N :   -0.046500
  19 C :   -0.017374
  20 N :   -0.052399
  21 C :    0.058373
  22 C :   -0.183688
  23 C :    0.014421
  24 C :   -0.077051
  25 C :   -0.164435
  26 S :    0.550529
  27 C :   -0.189862
  28 C :   -0.057776
  29 C :    0.078998
  30 C :   -0.101238
  31 C :   -0.012515
  32 N :   -0.035919
  33 C :   -0.021074
  34 N :   -0.023809
  35 C :   -0.019138
  36 C :   -0.158348
  37 S :    0.500629
  38 C :   -0.062803
  39 C :    0.057746
  40 F :   -0.051464
  41 C :    0.058675
  42 F :   -0.051469
  43 C :   -0.063715
  44 C :   -0.040302
  45 C :   -0.043153
  46 N :   -0.074225
  47 N :    0.167337
  48 N :   -0.078524
  49 C :    0.036598
  50 C :   -0.158701
  51 C :   -0.017788
  52 C :   -0.057087
  53 C :   -0.190998
  54 S :    0.501202
  55 C :   -0.148656
  56 C :   -0.072964
  57 C :    0.080351
  58 C :   -0.097308
  59 C :   -0.018075
  60 N :   -0.026770
  61 C :   -0.014713
  62 N :   -0.031746
  63 C :    0.016779
  64 C :   -0.178731
  65 S :    0.512862
  66 C :    0.053408
  67 C :   -0.103154
  68 C :    0.083217
  69 O :   -0.140071
  70 C :   -0.053619
  71 C :    0.031265
  72 C :   -0.009083
  73 C :   -0.005628
  74 C :   -0.030448
  75 C :    0.067445
  76 C :    0.067468
  77 C :   -0.032221
  78 F :   -0.048542
  79 F :   -0.047937
  80 C :    0.013910
  81 C :   -0.020622
  82 C :    0.059585
  83 C :   -0.144546
  84 C :   -0.037653
  85 N :   -0.046499
  86 C :   -0.020240
  87 N :   -0.049545
  88 H :    0.048468
  89 H :    0.044864
  90 H :    0.040406
  91 H :    0.040188
  92 H :    0.054021
  93 H :    0.048540
  94 H :    0.038161
  95 H :    0.049273
  96 H :    0.046202
  97 H :    0.047638
  98 H :    0.038500
  99 H :    0.047838
 100 H :    0.055770
 101 H :    0.041327
 102 H :    0.047213
 103 H :    0.045265
 104 H :    0.039547

  Mayer bond orders larger than 0.100000
B(  0-C ,  1-C ) :   1.4409 B(  0-C ,  5-C ) :   0.1077 B(  0-C ,  7-C ) :   1.1911
B(  0-C , 88-H ) :   1.0065 B(  1-C ,  2-F ) :   1.1365 B(  1-C ,  3-C ) :   1.1904
B(  3-C ,  4-F ) :   1.1339 B(  3-C ,  5-C ) :   1.4435 B(  5-C ,  6-C ) :   1.1937
B(  5-C , 89-H ) :   1.0068 B(  6-C ,  7-C ) :   1.2528 B(  6-C , 11-C ) :   1.1882
B(  7-C ,  8-C ) :   1.2148 B(  8-C ,  9-C ) :   1.4565 B(  8-C , 90-H ) :   0.9894
B(  9-C , 10-C ) :   1.2198 B(  9-C , 15-C ) :   0.9817 B( 10-C , 11-C ) :   1.4700
B( 10-C , 12-C ) :   0.9617 B( 11-C , 91-H ) :   1.0166 B( 12-C , 13-O ) :   2.1091
B( 12-C , 14-C ) :   0.9876 B( 14-C , 15-C ) :   1.0794 B( 14-C , 21-C ) :   1.4790
B( 15-C , 16-C ) :   1.6268 B( 16-C , 17-C ) :   1.1420 B( 16-C , 19-C ) :   1.1496
B( 17-C , 18-N ) :   2.9623 B( 19-C , 20-N ) :   2.9595 B( 21-C , 22-C ) :   1.2753
B( 21-C , 92-H ) :   0.9408 B( 22-C , 23-C ) :   1.3207 B( 22-C , 26-S ) :   1.0680
B( 23-C , 24-C ) :   1.3365 B( 23-C , 93-H ) :   1.0094 B( 24-C , 25-C ) :   1.3527
B( 24-C , 29-C ) :   0.9809 B( 25-C , 26-S ) :   1.1304 B( 25-C , 27-C ) :   1.2049
B( 27-C , 28-C ) :   1.4186 B( 27-C , 37-S ) :   1.1070 B( 28-C , 29-C ) :   1.0036
B( 28-C , 35-C ) :   1.2572 B( 29-C , 30-C ) :   1.7126 B( 30-C , 31-C ) :   1.1368
B( 30-C , 33-C ) :   1.1356 B( 31-C , 32-N ) :   2.9897 B( 33-C , 34-N ) :   2.9985
B( 35-C , 36-C ) :   1.4674 B( 35-C , 94-H ) :   0.9784 B( 36-C , 37-S ) :   1.1021
B( 36-C , 38-C ) :   1.1459 B( 38-C , 39-C ) :   1.3593 B( 38-C , 43-C ) :   0.1273
B( 38-C , 45-C ) :   1.1739 B( 39-C , 40-F ) :   1.1375 B( 39-C , 41-C ) :   1.2093
B( 41-C , 42-F ) :   1.1341 B( 41-C , 43-C ) :   1.3584 B( 43-C , 44-C ) :   1.1747
B( 43-C , 50-C ) :   1.1447 B( 44-C , 45-C ) :   1.2247 B( 44-C , 48-N ) :   1.4701
B( 45-C , 46-N ) :   1.4724 B( 46-N , 47-N ) :   1.2462 B( 46-N , 48-N ) :   0.1563
B( 47-N , 48-N ) :   1.2306 B( 47-N , 49-C ) :   0.9448 B( 49-C , 95-H ) :   0.9633
B( 49-C , 96-H ) :   0.9683 B( 49-C , 97-H ) :   0.9671 B( 50-C , 51-C ) :   1.4651
B( 50-C , 54-S ) :   1.1047 B( 51-C , 52-C ) :   1.2615 B( 51-C , 98-H ) :   0.9791
B( 52-C , 53-C ) :   1.4214 B( 52-C , 57-C ) :   0.9972 B( 53-C , 54-S ) :   1.1034
B( 53-C , 55-C ) :   1.2102 B( 55-C , 56-C ) :   1.3972 B( 55-C , 65-S ) :   1.1636
B( 56-C , 57-C ) :   0.9894 B( 56-C , 63-C ) :   1.3085 B( 57-C , 58-C ) :   1.7168
B( 58-C , 59-C ) :   1.1324 B( 58-C , 61-C ) :   1.1395 B( 59-C , 60-N ) :   2.9961
B( 61-C , 62-N ) :   2.9850 B( 63-C , 64-C ) :   1.3924 B( 63-C , 99-H ) :   1.0008
B( 64-C , 65-S ) :   1.0812 B( 64-C , 66-C ) :   1.1568 B( 66-C , 67-C ) :   1.6209
B( 66-C ,100-H ) :   0.9480 B( 67-C , 68-C ) :   0.9416 B( 67-C , 82-C ) :   1.0405
B( 68-C , 69-O ) :   2.2756 B( 68-C , 70-C ) :   0.9164 B( 70-C , 71-C ) :   1.4783
B( 70-C , 81-C ) :   1.2244 B( 71-C , 72-C ) :   1.1935 B( 71-C ,101-H ) :   1.0155
B( 72-C , 73-C ) :   1.2592 B( 72-C , 77-C ) :   1.1945 B( 73-C , 74-C ) :   1.1896
B( 73-C , 80-C ) :   1.2142 B( 74-C , 75-C ) :   1.4422 B( 74-C , 77-C ) :   0.1086
B( 74-C ,102-H ) :   1.0063 B( 75-C , 76-C ) :   1.1927 B( 75-C , 79-F ) :   1.1356
B( 76-C , 77-C ) :   1.4433 B( 76-C , 78-F ) :   1.1341 B( 77-C ,103-H ) :   1.0062
B( 80-C , 81-C ) :   1.4588 B( 80-C ,104-H ) :   0.9942 B( 81-C , 82-C ) :   0.9981
B( 82-C , 83-C ) :   1.6522 B( 83-C , 84-C ) :   1.1505 B( 83-C , 86-C ) :   1.1342
B( 84-C , 85-N ) :   3.0215 B( 86-C , 87-N ) :   2.9889

-----------------------------------------------------------------------------
         ABSORPTION SPECTRUM VIA TRANSITION ELECTRIC DIPOLE MOMENTS
-----------------------------------------------------------------------------
State   Energy  Wavelength   fosc         T2         TX        TY        TZ
        (cm-1)    (nm)                  (au**2)     (au)      (au)      (au)
-----------------------------------------------------------------------------
   0   13187.9    758.3   0.809261565  20.20172  -0.70526  -4.09634  -1.71007
   1   14578.6    685.9   0.159479797   3.60136   0.23468   1.84395  -0.38226
   2   19283.5    518.6   1.475247861  25.18580  -0.81574  -4.51864  -2.02541
   3   20847.3    479.7   0.743081540  11.73443   0.21659   2.69878  -2.09860
   4   22047.2    453.6   0.003394891   0.05069  -0.17062  -0.14609   0.01552
   5   23669.1    422.5   0.009116071   0.12679  -0.23244  -0.09579   0.25217
   6   25433.9    393.2   0.096992231   1.25545  -0.36121  -1.05170  -0.13749
   7   26080.4    383.4   0.164182623   2.07247  -0.36651   1.11324   0.83597
   8   26683.8    374.8   0.073579729   0.90779   0.00187   0.94953   0.07865
   9   27623.3    362.0   0.158623094   1.89046   0.10027   0.24325  -1.34953
  10   27913.3    358.3   0.030307269   0.35745  -0.12937   0.53783   0.22681
  11   28284.2    353.6   0.006025301   0.07013  -0.14215  -0.22334   0.00658
  12   28353.9    352.7   0.010040458   0.11658  -0.13051  -0.19432  -0.24856
  13   28692.8    348.5   0.076843607   0.88168   0.26421  -0.59339  -0.67805
  14   29076.4    343.9   0.002903632   0.03288  -0.16319   0.05335   0.05829
  15   29322.8    341.0   0.036159661   0.40597   0.24067  -0.21441  -0.54962
  16   29441.1    339.7   0.102100073   1.14169   0.29395   1.02084  -0.11477
  17   29894.4    334.5   0.124449347   1.37050   0.55535  -0.26615  -0.99561
  18   30257.1    330.5   0.818480777   8.90548   0.54460   0.50922  -2.88957
  19   30431.7    328.6   0.021253523   0.22992   0.21838   0.33092  -0.26967
  20   30668.9    326.1   0.023496139   0.25222  -0.11755  -0.18139   0.45332
  21   31493.6    317.5   0.292847819   3.06122  -0.32727   1.49784   0.84297
  22   31910.8    313.4   0.029568713   0.30505  -0.03573   0.11440   0.53915
  23   32317.7    309.4   0.122719344   1.25011  -0.38137  -0.98621   0.36339
  24   32633.3    306.4   0.071375243   0.72005  -0.40025  -0.36850  -0.65120
  25   32798.3    304.9   0.007178675   0.07206   0.15952   0.10074   0.19095
  26   33208.0    301.1   0.984828640   9.76322  -0.66664  -0.96747   2.89531
  27   33299.1    300.3   0.246032431   2.43240  -0.47890   1.40454   0.47993
  28   33392.1    299.5   0.040255743   0.39688  -0.06151  -0.20527   0.59242
  29   33639.0    297.3   0.023998581   0.23486  -0.09976  -0.28816   0.37666
  30   34198.7    292.4   0.188288873   1.81255  -0.57000  -0.04286   1.21894
  31   34257.1    291.9   0.119429779   1.14772  -0.04968  -0.53136   0.92893
  32   34358.4    291.0   0.041177985   0.39456  -0.29812  -0.02759   0.55219
  33   34728.0    288.0   0.439921837   4.17034   0.41738   0.47432  -1.94195
  34   35068.2    285.2   0.056468310   0.53011   0.14722   0.37655  -0.60551
  35   35238.0    283.8   0.043831366   0.40950   0.19185   0.20213  -0.57605
  36   35444.5    282.1   0.065404290   0.60748  -0.19833   0.75375   0.00301
  37   35716.5    280.0   0.083200387   0.76689   0.36899  -0.35015  -0.71283
  38   35759.9    279.6   0.047273918   0.43521   0.19287   0.19564  -0.59978
  39   35916.0    278.4   0.138576986   1.27022   0.42952  -0.37804  -0.97099
  40   36111.7    276.9   0.070573467   0.64338   0.34814  -0.72224   0.02348
  41   36188.9    276.3   0.189461770   1.72354   0.59479  -0.46168  -1.07546
  42   36368.5    275.0   0.024076271   0.21794  -0.05627   0.20010  -0.41801
  43   36627.2    273.0   0.014479193   0.13014  -0.08118   0.31793   0.14991
  44   36838.7    271.5   0.029943715   0.26759   0.41929  -0.26393  -0.14877
  45   36922.4    270.8   0.051626632   0.46032   0.25703  -0.62769   0.01616
  46   37124.5    269.4   0.357663689   3.17168  -0.18878  -1.26991  -1.23425
  47   37302.6    268.1   0.078124609   0.68949  -0.55590  -0.01096   0.61671
  48   37557.8    266.3   0.014850977   0.13018  -0.16125   0.24340  -0.21196
  49   37835.3    264.3   0.027070016   0.23554  -0.10728  -0.11949  -0.45799
  50   38338.9    260.8   0.092847740   0.79727  -0.01845  -0.79146  -0.41294
  51   38658.0    258.7   0.017616634   0.15002   0.22809   0.23563   0.20610
  52   38841.8    257.5   0.018516577   0.15694   0.00997  -0.32024  -0.23300
  53   39005.7    256.4   0.195149536   1.64708   0.14027   1.26281   0.18087
  54   39325.6    254.3   0.027215413   0.22783   0.09239  -0.34060  -0.32138
  55   39467.0    253.4   0.136210690   1.13619  -0.18396  -0.14080   1.04045
  56   39638.9    252.3   0.006085354   0.05054  -0.12834   0.08984  -0.16124
  57   40233.0    248.6   0.069488327   0.56860   0.05880   0.21989  -0.71888
  58   40259.5    248.4   0.095890200   0.78412  -0.02372  -0.77755   0.42305

FINAL SINGLE POINT ENERGY     -5426.292237656995

DIPOLE MOMENT
-------------
                                X             Y             Z
Electronic contribution:      8.57216      10.25747     -32.34429
Nuclear contribution   :     -6.98140     -11.49510      30.24762
                        -----------------------------------------
Total Dipole Moment    :      1.59076      -1.23763      -2.09667
                        -----------------------------------------
Magnitude (a.u.)       :      2.90831
Magnitude (Debye)      :      7.39234

Rotational constants in cm-1:     0.000825     0.000152     0.000130
Rotational constants in MHz :    24.742519     4.547393     3.883140

                             ****ORCA TERMINATED NORMALLY****
TOTAL RUN TIME: 0 days 0 hours 12 minutes 22 seconds 122 msec
