                         Program Version 4.2.0 -  RELEASE  -
|  1> # ORCA input file
|  2> # SCF done       -208.371993432300          0.000484409802
|  3> ! CAM-B3LYP def2-SVP def2/J RIJCOSX Grid4 TightSCF
|  4> %maxcore 5000
|  5> %tddft
|  6>     Mode sTDDFT
|  7>     Ethresh 5.0
|  8>     maxcore 5000
|  9> end
| 10>
| 11> %pal
| 12>   nprocs 6
| 13>   end
| 14> * xyz 0 1
| 15>    C        1.88991         1.72076         0.95804
| 16>    C        2.55722         2.61533         0.16216
| 17>    C        3.36874         2.23936        -0.92919
| 18>    N        4.04610         1.98806        -1.82047
| 19>    C        2.58950         4.00351         0.39458
| 20>    N        2.65826         5.13770         0.56084
| 21>    C        2.02089         0.26998         0.87327
| 22>    C        1.62318        -0.29675         2.11971
| 23>    C        1.67252        -1.64271         2.34319
| 24>    C        2.11671        -2.49673         1.30859
| 25>    C        2.49498        -1.93733         0.05345
| 26>    C        2.44119        -0.53880        -0.14759
| 27>    C        2.92493        -2.80174        -0.97357
| 28>    C        2.98328        -4.15388        -0.77163
| 29>    C        2.61269        -4.70367         0.46469
| 30>    C        2.18894        -3.89291         1.48259
| 31>    C        1.16545         0.77662         3.01693
| 32>    O        0.80798         0.69327         4.16911
| 33>    C        1.16741         2.01434         2.17886
| 34>    C        0.46662         3.09518         2.61610
| 35>    C       -0.00486         4.20257         1.87459
| 36>    C       -0.18743         4.31540         0.50409
| 37>    C       -0.71046         5.55070         0.14535
| 38>    C       -0.94006         6.39347         1.25068
| 39>    S       -0.52469         5.65249         2.72425
| 40>    C       -1.46313         7.62502         0.77768
| 41>    C       -1.55623         7.55586        -0.62740
| 42>    C       -1.07492         6.25774        -1.07006
| 43>    C       -0.95800         5.79849        -2.34877
| 44>    C       -1.33567         6.57599        -3.46380
| 45>    N       -1.65203         7.20790        -4.36615
| 46>    C       -0.45146         4.51040        -2.62333
| 47>    N       -0.04410         3.45852        -2.82944
| 48>    C       -2.07624         8.71757        -1.18643
| 49>    C       -2.38035         9.66094        -0.21695
| 50>    S       -2.00859         9.11146         1.41078
| 51>    C       -2.95340        10.93614        -0.43108
| 52>    C       -3.29944        11.89988         0.48695
| 53>    C       -3.24782        12.07135         1.93929
| 54>    O       -2.83484        11.32272         2.79466
| 55>    N       -3.80322        13.32499         2.17178
| 56>    C       -3.94611        13.89297         3.48949
| 57>    C       -4.21654        13.97651         1.01513
| 58>    O       -4.73800        15.06672         0.97853
| 59>    C       -3.88744        13.05547        -0.07421
| 60>    C       -4.01409        13.02077        -1.44279
| 61>    S       -3.36711        11.49997        -2.04458
| 62>    C       -4.58221        13.98019        -2.31305
| 63>    C       -4.70370        13.87611        -3.69038
| 64>    C       -5.34958        14.98031        -4.23436
| 65>    C       -5.71539        15.92829        -3.25745
| 66>    S       -5.26324        15.46971        -1.67679
| 67>    C       -6.38980        16.99455        -3.90415
| 68>    C       -6.45425        16.71705        -5.28649
| 69>    C       -5.78199        15.45363        -5.54040
| 70>    C       -5.58500        14.84483        -6.74388
| 71>    C       -6.00344        15.41225        -7.96739
| 72>    N       -6.31084        15.86352        -8.97503
| 73>    C       -4.92050        13.60369        -6.84864
| 74>    N       -4.38425        12.59381        -6.93124
| 75>    C       -7.15192        17.67885        -6.00604
| 76>    C       -7.62664        18.69656        -5.19058
| 77>    S       -7.15277        18.45947        -3.50421
| 78>    C       -8.36215        19.86384        -5.49201
| 79>    C       -9.14647        20.11883        -6.58079
| 80>    C       -9.78916        21.39259        -6.85607
| 81>    C       -9.46192        22.60358        -6.30307
| 82>    C      -10.10633        23.81651        -6.62479
| 83>    N      -10.59527        24.83331        -6.83679
| 84>    C       -8.42333        22.81793        -5.37280
| 85>    N       -7.58430        23.07150        -4.63059
| 86>    C      -10.78636        21.17622        -7.89605
| 87>    C      -10.71457        19.81693        -8.31276
| 88>    C       -9.67843        19.11326        -7.54006
| 89>    O       -9.38808        17.93991        -7.63251
| 90>    C      -11.52666        19.31504        -9.28846
| 91>    C      -12.46894        20.16825        -9.90447
| 92>    C      -12.55417        21.52837        -9.48768
| 93>    C      -11.69863        22.01894        -8.47443
| 94>    C      -13.50313        22.36854       -10.10492
| 95>    C      -14.32694        21.89085       -11.08767
| 96>    C      -14.24070        20.55215       -11.49822
| 97>    C      -13.33104        19.70917       -10.91948
| 98>    H        1.37441        -2.05232         3.29686
| 99>    H        2.71976        -0.14142        -1.11109
|100>    H        3.21197        -2.37319        -1.92243
|101>    H        3.31598        -4.80764        -1.56383
|102>    H        2.66396        -5.77281         0.60646
|103>    H        1.90175        -4.31079         2.43639
|104>    H        0.17426         3.05783         3.66125
|105>    H        0.01128         3.51292        -0.18243
|106>    H       -2.23844         8.88912        -2.23584
|107>    H       -3.67391        13.12713         4.21349
|108>    H       -4.97754        14.21018         3.64392
|109>    H       -3.29071        14.75804         3.60165
|110>    H       -4.33945        13.02789        -4.24230
|111>    H       -7.31369        17.65401        -7.06690
|112>    H       -8.31281        20.62799        -4.72468
|113>    H      -11.44815        18.28027        -9.58712
|114>    H      -11.79240        23.05127        -8.17686
|115>    H      -13.56491        23.39896        -9.78699
|116>    H      -15.04987        22.54268       -11.55478
|117>    H      -14.89859        20.19214       -12.27499
|118>    H      -13.25944        18.67739       -11.23101
|119> *
|120>
|121>                          ****END OF INPUT****

CARTESIAN COORDINATES (ANGSTROEM)
---------------------------------
  C      1.889910    1.720760    0.958040
  C      2.557220    2.615330    0.162160
  C      3.368740    2.239360   -0.929190
  N      4.046100    1.988060   -1.820470
  C      2.589500    4.003510    0.394580
  N      2.658260    5.137700    0.560840
  C      2.020890    0.269980    0.873270
  C      1.623180   -0.296750    2.119710
  C      1.672520   -1.642710    2.343190
  C      2.116710   -2.496730    1.308590
  C      2.494980   -1.937330    0.053450
  C      2.441190   -0.538800   -0.147590
  C      2.924930   -2.801740   -0.973570
  C      2.983280   -4.153880   -0.771630
  C      2.612690   -4.703670    0.464690
  C      2.188940   -3.892910    1.482590
  C      1.165450    0.776620    3.016930
  O      0.807980    0.693270    4.169110
  C      1.167410    2.014340    2.178860
  C      0.466620    3.095180    2.616100
  C     -0.004860    4.202570    1.874590
  C     -0.187430    4.315400    0.504090
  C     -0.710460    5.550700    0.145350
  C     -0.940060    6.393470    1.250680
  S     -0.524690    5.652490    2.724250
  C     -1.463130    7.625020    0.777680
  C     -1.556230    7.555860   -0.627400
  C     -1.074920    6.257740   -1.070060
  C     -0.958000    5.798490   -2.348770
  C     -1.335670    6.575990   -3.463800
  N     -1.652030    7.207900   -4.366150
  C     -0.451460    4.510400   -2.623330
  N     -0.044100    3.458520   -2.829440
  C     -2.076240    8.717570   -1.186430
  C     -2.380350    9.660940   -0.216950
  S     -2.008590    9.111460    1.410780
  C     -2.953400   10.936140   -0.431080
  C     -3.299440   11.899880    0.486950
  C     -3.247820   12.071350    1.939290
  O     -2.834840   11.322720    2.794660
  N     -3.803220   13.324990    2.171780
  C     -3.946110   13.892970    3.489490
  C     -4.216540   13.976510    1.015130
  O     -4.738000   15.066720    0.978530
  C     -3.887440   13.055470   -0.074210
  C     -4.014090   13.020770   -1.442790
  S     -3.367110   11.499970   -2.044580
  C     -4.582210   13.980190   -2.313050
  C     -4.703700   13.876110   -3.690380
  C     -5.349580   14.980310   -4.234360
  C     -5.715390   15.928290   -3.257450
  S     -5.263240   15.469710   -1.676790
  C     -6.389800   16.994550   -3.904150
  C     -6.454250   16.717050   -5.286490
  C     -5.781990   15.453630   -5.540400
  C     -5.585000   14.844830   -6.743880
  C     -6.003440   15.412250   -7.967390
  N     -6.310840   15.863520   -8.975030
  C     -4.920500   13.603690   -6.848640
  N     -4.384250   12.593810   -6.931240
  C     -7.151920   17.678850   -6.006040
  C     -7.626640   18.696560   -5.190580
  S     -7.152770   18.459470   -3.504210
  C     -8.362150   19.863840   -5.492010
  C     -9.146470   20.118830   -6.580790
  C     -9.789160   21.392590   -6.856070
  C     -9.461920   22.603580   -6.303070
  C    -10.106330   23.816510   -6.624790
  N    -10.595270   24.833310   -6.836790
  C     -8.423330   22.817930   -5.372800
  N     -7.584300   23.071500   -4.630590
  C    -10.786360   21.176220   -7.896050
  C    -10.714570   19.816930   -8.312760
  C     -9.678430   19.113260   -7.540060
  O     -9.388080   17.939910   -7.632510
  C    -11.526660   19.315040   -9.288460
  C    -12.468940   20.168250   -9.904470
  C    -12.554170   21.528370   -9.487680
  C    -11.698630   22.018940   -8.474430
  C    -13.503130   22.368540  -10.104920
  C    -14.326940   21.890850  -11.087670
  C    -14.240700   20.552150  -11.498220
  C    -13.331040   19.709170  -10.919480
  H      1.374410   -2.052320    3.296860
  H      2.719760   -0.141420   -1.111090
  H      3.211970   -2.373190   -1.922430
  H      3.315980   -4.807640   -1.563830
  H      2.663960   -5.772810    0.606460
  H      1.901750   -4.310790    2.436390
  H      0.174260    3.057830    3.661250
  H      0.011280    3.512920   -0.182430
  H     -2.238440    8.889120   -2.235840
  H     -3.673910   13.127130    4.213490
  H     -4.977540   14.210180    3.643920
  H     -3.290710   14.758040    3.601650
  H     -4.339450   13.027890   -4.242300
  H     -7.313690   17.654010   -7.066900
  H     -8.312810   20.627990   -4.724680
  H    -11.448150   18.280270   -9.587120
  H    -11.792400   23.051270   -8.176860
  H    -13.564910   23.398960   -9.786990
  H    -15.049870   22.542680  -11.554780
  H    -14.898590   20.192140  -12.274990
  H    -13.259440   18.677390  -11.231010

 Total Charge           Charge          ....    0
 Multiplicity           Mult            ....    1
 Number of Electrons    NEL             ....  586
 Basis Dimension        Dim             .... 1287

ORBITAL ENERGIES
----------------

  NO   OCC          E(Eh)            E(eV)
   0   2.0000     -88.999072     -2421.7879
   1   2.0000     -88.998401     -2421.7696
   2   2.0000     -88.998290     -2421.7666
   3   2.0000     -88.997832     -2421.7541
   4   2.0000     -88.996075     -2421.7063
   5   2.0000     -19.228874      -523.2443
   6   2.0000     -19.228734      -523.2405
   7   2.0000     -19.218031      -522.9492
   8   2.0000     -19.216147      -522.8979
   9   2.0000     -14.473435      -393.8422
  10   2.0000     -14.435573      -392.8119
  11   2.0000     -14.434673      -392.7874
  12   2.0000     -14.434611      -392.7857
  13   2.0000     -14.431576      -392.7031
  14   2.0000     -14.418969      -392.3601
  15   2.0000     -14.416550      -392.2943
  16   2.0000     -14.414526      -392.2392
  17   2.0000     -14.413855      -392.2209
  18   2.0000     -10.411712      -283.3171
  19   2.0000     -10.410878      -283.2944
  20   2.0000     -10.370620      -282.1989
  21   2.0000     -10.370392      -282.1927
  22   2.0000     -10.370049      -282.1834
  23   2.0000     -10.367565      -282.1158
  24   2.0000     -10.358030      -281.8563
  25   2.0000     -10.357302      -281.8365
  26   2.0000     -10.355660      -281.7918
  27   2.0000     -10.355123      -281.7772
  28   2.0000     -10.347593      -281.5723
  29   2.0000     -10.345373      -281.5119
  30   2.0000     -10.344713      -281.4940
  31   2.0000     -10.343359      -281.4571
  32   2.0000     -10.342197      -281.4255
  33   2.0000     -10.342126      -281.4236
  34   2.0000     -10.341132      -281.3965
  35   2.0000     -10.340758      -281.3863
  36   2.0000     -10.339328      -281.3474
  37   2.0000     -10.339094      -281.3411
  38   2.0000     -10.335725      -281.2494
  39   2.0000     -10.334602      -281.2188
  40   2.0000     -10.334496      -281.2159
  41   2.0000     -10.331336      -281.1299
  42   2.0000     -10.330942      -281.1192
  43   2.0000     -10.330506      -281.1073
  44   2.0000     -10.329386      -281.0769
  45   2.0000     -10.326856      -281.0081
  46   2.0000     -10.320149      -280.8255
  47   2.0000     -10.319487      -280.8075
  48   2.0000     -10.317455      -280.7522
  49   2.0000     -10.316611      -280.7293
  50   2.0000     -10.316221      -280.7186
  51   2.0000     -10.315624      -280.7024
  52   2.0000     -10.315556      -280.7006
  53   2.0000     -10.315121      -280.6887
  54   2.0000     -10.314787      -280.6796
  55   2.0000     -10.313800      -280.6528
  56   2.0000     -10.311468      -280.5893
  57   2.0000     -10.311412      -280.5878
  58   2.0000     -10.310635      -280.5666
  59   2.0000     -10.309517      -280.5362
  60   2.0000     -10.309138      -280.5259
  61   2.0000     -10.303690      -280.3777
  62   2.0000     -10.303286      -280.3667
  63   2.0000     -10.302851      -280.3548
  64   2.0000     -10.302833      -280.3543
  65   2.0000     -10.297974      -280.2221
  66   2.0000     -10.297843      -280.2186
  67   2.0000     -10.297759      -280.2163
  68   2.0000     -10.297565      -280.2110
  69   2.0000     -10.297504      -280.2093
  70   2.0000     -10.296952      -280.1943
  71   2.0000     -10.296782      -280.1897
  72   2.0000     -10.296464      -280.1810
  73   2.0000     -10.290078      -280.0072
  74   2.0000     -10.288664      -279.9688
  75   2.0000     -10.286575      -279.9119
  76   2.0000     -10.286512      -279.9102
  77   2.0000     -10.286073      -279.8983
  78   2.0000     -10.285987      -279.8959
  79   2.0000     -10.285804      -279.8910
  80   2.0000     -10.285617      -279.8859
  81   2.0000     -10.285362      -279.8789
  82   2.0000     -10.285055      -279.8706
  83   2.0000      -8.093730      -220.2416
  84   2.0000      -8.093152      -220.2259
  85   2.0000      -8.091737      -220.1874
  86   2.0000      -8.091286      -220.1751
  87   2.0000      -8.090622      -220.1570
  88   2.0000      -6.062865      -164.9789
  89   2.0000      -6.062259      -164.9624
  90   2.0000      -6.061112      -164.9312
  91   2.0000      -6.060659      -164.9189
  92   2.0000      -6.060298      -164.9091
  93   2.0000      -6.058707      -164.8658
  94   2.0000      -6.058122      -164.8499
  95   2.0000      -6.056598      -164.8084
  96   2.0000      -6.056278      -164.7997
  97   2.0000      -6.056120      -164.7954
  98   2.0000      -6.055908      -164.7896
  99   2.0000      -6.055697      -164.7839
 100   2.0000      -6.054097      -164.7404
 101   2.0000      -6.053668      -164.7287
 102   2.0000      -6.052248      -164.6901
 103   2.0000      -1.175036       -31.9744
 104   2.0000      -1.151877       -31.3442
 105   2.0000      -1.133842       -30.8534
 106   2.0000      -1.131673       -30.7944
 107   2.0000      -1.067337       -29.0437
 108   2.0000      -1.054141       -28.6846
 109   2.0000      -1.053487       -28.6669
 110   2.0000      -1.029018       -28.0010
 111   2.0000      -1.026642       -27.9364
 112   2.0000      -1.024627       -27.8815
 113   2.0000      -1.019968       -27.7548
 114   2.0000      -1.018788       -27.7226
 115   2.0000      -1.012839       -27.5607
 116   2.0000      -1.010465       -27.4961
 117   2.0000      -1.008176       -27.4339
 118   2.0000      -1.000223       -27.2174
 119   2.0000      -0.999732       -27.2041
 120   2.0000      -0.998577       -27.1727
 121   2.0000      -0.993937       -27.0464
 122   2.0000      -0.993364       -27.0308
 123   2.0000      -0.973552       -26.4917
 124   2.0000      -0.972410       -26.4606
 125   2.0000      -0.967205       -26.3190
 126   2.0000      -0.963552       -26.2196
 127   2.0000      -0.932374       -25.3712
 128   2.0000      -0.929515       -25.2934
 129   2.0000      -0.923275       -25.1236
 130   2.0000      -0.920560       -25.0497
 131   2.0000      -0.909690       -24.7539
 132   2.0000      -0.905065       -24.6281
 133   2.0000      -0.899046       -24.4643
 134   2.0000      -0.888311       -24.1722
 135   2.0000      -0.882075       -24.0025
 136   2.0000      -0.881927       -23.9984
 137   2.0000      -0.880075       -23.9481
 138   2.0000      -0.879120       -23.9221
 139   2.0000      -0.868220       -23.6255
 140   2.0000      -0.865805       -23.5598
 141   2.0000      -0.864900       -23.5351
 142   2.0000      -0.858511       -23.3613
 143   2.0000      -0.828637       -22.5484
 144   2.0000      -0.828347       -22.5405
 145   2.0000      -0.823416       -22.4063
 146   2.0000      -0.815768       -22.1982
 147   2.0000      -0.814767       -22.1709
 148   2.0000      -0.798563       -21.7300
 149   2.0000      -0.786533       -21.4027
 150   2.0000      -0.783927       -21.3317
 151   2.0000      -0.781384       -21.2626
 152   2.0000      -0.764146       -20.7935
 153   2.0000      -0.762157       -20.7393
 154   2.0000      -0.757767       -20.6199
 155   2.0000      -0.746342       -20.3090
 156   2.0000      -0.730979       -19.8909
 157   2.0000      -0.721000       -19.6194
 158   2.0000      -0.710418       -19.3314
 159   2.0000      -0.707976       -19.2650
 160   2.0000      -0.704984       -19.1836
 161   2.0000      -0.702907       -19.1271
 162   2.0000      -0.701995       -19.1022
 163   2.0000      -0.699497       -19.0343
 164   2.0000      -0.697406       -18.9774
 165   2.0000      -0.691567       -18.8185
 166   2.0000      -0.686702       -18.6861
 167   2.0000      -0.686042       -18.6682
 168   2.0000      -0.677722       -18.4418
 169   2.0000      -0.676292       -18.4028
 170   2.0000      -0.660931       -17.9849
 171   2.0000      -0.657615       -17.8946
 172   2.0000      -0.649887       -17.6843
 173   2.0000      -0.639813       -17.4102
 174   2.0000      -0.637656       -17.3515
 175   2.0000      -0.634149       -17.2561
 176   2.0000      -0.632935       -17.2230
 177   2.0000      -0.627412       -17.0727
 178   2.0000      -0.624443       -16.9920
 179   2.0000      -0.617956       -16.8154
 180   2.0000      -0.609374       -16.5819
 181   2.0000      -0.608056       -16.5460
 182   2.0000      -0.606478       -16.5031
 183   2.0000      -0.604134       -16.4393
 184   2.0000      -0.598888       -16.2966
 185   2.0000      -0.595403       -16.2017
 186   2.0000      -0.595015       -16.1912
 187   2.0000      -0.579261       -15.7625
 188   2.0000      -0.578410       -15.7393
 189   2.0000      -0.569261       -15.4904
 190   2.0000      -0.562947       -15.3186
 191   2.0000      -0.561879       -15.2895
 192   2.0000      -0.556510       -15.1434
 193   2.0000      -0.556014       -15.1299
 194   2.0000      -0.554759       -15.0958
 195   2.0000      -0.551221       -14.9995
 196   2.0000      -0.546841       -14.8803
 197   2.0000      -0.546539       -14.8721
 198   2.0000      -0.545646       -14.8478
 199   2.0000      -0.540716       -14.7136
 200   2.0000      -0.538836       -14.6625
 201   2.0000      -0.537774       -14.6336
 202   2.0000      -0.536890       -14.6095
 203   2.0000      -0.535680       -14.5766
 204   2.0000      -0.530916       -14.4470
 205   2.0000      -0.529588       -14.4108
 206   2.0000      -0.523688       -14.2503
 207   2.0000      -0.522626       -14.2214
 208   2.0000      -0.519606       -14.1392
 209   2.0000      -0.518948       -14.1213
 210   2.0000      -0.516494       -14.0545
 211   2.0000      -0.512763       -13.9530
 212   2.0000      -0.511870       -13.9287
 213   2.0000      -0.511220       -13.9110
 214   2.0000      -0.509543       -13.8654
 215   2.0000      -0.509503       -13.8643
 216   2.0000      -0.507836       -13.8189
 217   2.0000      -0.506589       -13.7850
 218   2.0000      -0.504712       -13.7339
 219   2.0000      -0.504279       -13.7221
 220   2.0000      -0.500329       -13.6146
 221   2.0000      -0.499354       -13.5881
 222   2.0000      -0.496054       -13.4983
 223   2.0000      -0.493778       -13.4364
 224   2.0000      -0.492044       -13.3892
 225   2.0000      -0.490518       -13.3477
 226   2.0000      -0.489424       -13.3179
 227   2.0000      -0.487868       -13.2756
 228   2.0000      -0.486167       -13.2293
 229   2.0000      -0.485119       -13.2008
 230   2.0000      -0.481507       -13.1025
 231   2.0000      -0.477536       -12.9944
 232   2.0000      -0.473070       -12.8729
 233   2.0000      -0.466920       -12.7055
 234   2.0000      -0.465743       -12.6735
 235   2.0000      -0.465345       -12.6627
 236   2.0000      -0.464971       -12.6525
 237   2.0000      -0.464002       -12.6261
 238   2.0000      -0.462575       -12.5873
 239   2.0000      -0.459340       -12.4993
 240   2.0000      -0.454195       -12.3593
 241   2.0000      -0.452569       -12.3150
 242   2.0000      -0.451756       -12.2929
 243   2.0000      -0.449291       -12.2258
 244   2.0000      -0.446148       -12.1403
 245   2.0000      -0.445814       -12.1312
 246   2.0000      -0.444971       -12.1083
 247   2.0000      -0.444623       -12.0988
 248   2.0000      -0.443829       -12.0772
 249   2.0000      -0.442970       -12.0538
 250   2.0000      -0.442540       -12.0421
 251   2.0000      -0.441447       -12.0124
 252   2.0000      -0.439632       -11.9630
 253   2.0000      -0.439456       -11.9582
 254   2.0000      -0.438823       -11.9410
 255   2.0000      -0.434098       -11.8124
 256   2.0000      -0.433276       -11.7900
 257   2.0000      -0.432858       -11.7787
 258   2.0000      -0.432224       -11.7614
 259   2.0000      -0.430931       -11.7262
 260   2.0000      -0.428386       -11.6570
 261   2.0000      -0.427516       -11.6333
 262   2.0000      -0.426697       -11.6110
 263   2.0000      -0.424688       -11.5563
 264   2.0000      -0.420141       -11.4326
 265   2.0000      -0.419216       -11.4074
 266   2.0000      -0.411069       -11.1858
 267   2.0000      -0.409276       -11.1370
 268   2.0000      -0.405331       -11.0296
 269   2.0000      -0.404181       -10.9983
 270   2.0000      -0.398126       -10.8335
 271   2.0000      -0.384244       -10.4558
 272   2.0000      -0.378658       -10.3038
 273   2.0000      -0.377833       -10.2814
 274   2.0000      -0.373882       -10.1738
 275   2.0000      -0.369984       -10.0678
 276   2.0000      -0.364349        -9.9144
 277   2.0000      -0.360045        -9.7973
 278   2.0000      -0.358783        -9.7630
 279   2.0000      -0.355812        -9.6821
 280   2.0000      -0.348288        -9.4774
 281   2.0000      -0.345907        -9.4126
 282   2.0000      -0.339915        -9.2495
 283   2.0000      -0.335623        -9.1328
 284   2.0000      -0.328702        -8.9444
 285   2.0000      -0.326706        -8.8901
 286   2.0000      -0.319727        -8.7002
 287   2.0000      -0.317021        -8.6266
 288   2.0000      -0.312448        -8.5021
 289   2.0000      -0.295893        -8.0517
 290   2.0000      -0.294246        -8.0068
 291   2.0000      -0.278890        -7.5890
 292   2.0000      -0.257125        -6.9967
 293   0.0000      -0.119119        -3.2414
 294   0.0000      -0.113592        -3.0910
 295   0.0000      -0.092323        -2.5122
 296   0.0000      -0.090905        -2.4737
 297   0.0000      -0.068396        -1.8612

MULLIKEN ATOMIC CHARGES
-----------------------
   0 C :    0.265943
   1 C :   -0.325882
   2 C :   -0.170531
   3 N :    0.158705
   4 C :   -0.200738
   5 N :    0.166153
   6 C :    0.027964
   7 C :    0.019906
   8 C :   -0.083125
   9 C :    0.095645
  10 C :    0.091269
  11 C :   -0.076954
  12 C :   -0.015096
  13 C :    0.037405
  14 C :    0.034101
  15 C :   -0.015154
  16 C :    0.135963
  17 O :   -0.142781
  18 C :   -0.138637
  19 C :    0.082143
  20 C :   -0.111725
  21 C :    0.000471
  22 C :   -0.004589
  23 C :   -0.074043
  24 S :    0.221312
  25 C :   -0.092710
  26 C :    0.035300
  27 C :    0.304110
  28 C :   -0.286829
  29 C :   -0.192276
  30 N :    0.179830
  31 C :   -0.184059
  32 N :    0.173469
  33 C :   -0.075183
  34 C :   -0.076991
  35 S :    0.248661
  36 C :   -0.083417
  37 C :   -0.035787
  38 C :    0.193421
  39 O :   -0.175499
  40 N :   -0.308756
  41 C :    0.138007
  42 C :    0.185565
  43 O :   -0.175487
  44 C :   -0.024248
  45 C :   -0.084112
  46 S :    0.177758
  47 C :   -0.076935
  48 C :   -0.073928
  49 C :    0.034685
  50 C :   -0.091735
  51 S :    0.249136
  52 C :   -0.084798
  53 C :   -0.024600
  54 C :    0.303644
  55 C :   -0.292072
  56 C :   -0.186342
  57 N :    0.190538
  58 C :   -0.194671
  59 N :    0.178083
  60 C :    0.041720
  61 C :   -0.114066
  62 S :    0.213058
  63 C :    0.024337
  64 C :   -0.096048
  65 C :    0.304962
  66 C :   -0.343444
  67 C :   -0.182615
  68 N :    0.150363
  69 C :   -0.205828
  70 N :    0.157019
  71 C :    0.047824
  72 C :   -0.009469
  73 C :    0.153887
  74 O :   -0.151585
  75 C :   -0.075325
  76 C :    0.096887
  77 C :    0.094887
  78 C :   -0.080663
  79 C :   -0.017871
  80 C :    0.035407
  81 C :    0.035994
  82 C :   -0.014792
  83 H :   -0.012357
  84 H :    0.000555
  85 H :   -0.009308
  86 H :   -0.003709
  87 H :   -0.003989
  88 H :   -0.018047
  89 H :    0.021298
  90 H :    0.027135
  91 H :    0.019328
  92 H :    0.055283
  93 H :    0.043394
  94 H :    0.043469
  95 H :    0.018536
  96 H :    0.033050
  97 H :    0.023521
  98 H :   -0.010410
  99 H :   -0.007825
 100 H :   -0.009222
 101 H :   -0.004111
 102 H :   -0.004571
 103 H :   -0.016157
Sum of atomic charges:   -0.0000000

LOEWDIN ATOMIC CHARGES
----------------------
   0 C :    0.065277
   1 C :   -0.135687
   2 C :   -0.018463
   3 N :   -0.045632
   4 C :   -0.015989
   5 N :   -0.047094
   6 C :   -0.023129
   7 C :   -0.058013
   8 C :    0.033107
   9 C :   -0.008961
  10 C :   -0.004873
  11 C :    0.019557
  12 C :   -0.004824
  13 C :   -0.012286
  14 C :   -0.012712
  15 C :   -0.009373
  16 C :    0.083645
  17 O :   -0.143754
  18 C :   -0.086791
  19 C :    0.041118
  20 C :   -0.178275
  21 C :    0.007368
  22 C :   -0.062809
  23 C :   -0.162486
  24 S :    0.505013
  25 C :   -0.179857
  26 C :   -0.061846
  27 C :    0.080883
  28 C :   -0.096773
  29 C :   -0.018245
  30 N :   -0.026031
  31 C :   -0.013322
  32 N :   -0.030491
  33 C :   -0.023153
  34 C :   -0.186774
  35 S :    0.539347
  36 C :   -0.138826
  37 C :   -0.106348
  38 C :    0.085871
  39 O :   -0.173751
  40 N :   -0.034640
  41 C :    0.038136
  42 C :    0.085066
  43 O :   -0.172445
  44 C :   -0.103934
  45 C :   -0.141701
  46 S :    0.467315
  47 C :   -0.183368
  48 C :   -0.025799
  49 C :   -0.058494
  50 C :   -0.185441
  51 S :    0.538067
  52 C :   -0.162035
  53 C :   -0.071612
  54 C :    0.075851
  55 C :   -0.093741
  56 C :   -0.019796
  57 N :   -0.018535
  58 C :   -0.017060
  59 N :   -0.027612
  60 C :    0.023886
  61 C :   -0.175983
  62 S :    0.498135
  63 C :    0.042981
  64 C :   -0.091735
  65 C :    0.075593
  66 C :   -0.141138
  67 C :   -0.017610
  68 N :   -0.053341
  69 C :   -0.025219
  70 N :   -0.053324
  71 C :   -0.026458
  72 C :   -0.055473
  73 C :    0.084641
  74 O :   -0.138761
  75 C :    0.034119
  76 C :   -0.008117
  77 C :   -0.006060
  78 C :    0.019697
  79 C :   -0.005454
  80 C :   -0.013072
  81 C :   -0.011858
  82 C :   -0.008893
  83 H :    0.039236
  84 H :    0.040686
  85 H :    0.035111
  86 H :    0.033588
  87 H :    0.033008
  88 H :    0.031657
  89 H :    0.045993
  90 H :    0.042926
  91 H :    0.038983
  92 H :    0.039156
  93 H :    0.035209
  94 H :    0.034111
  95 H :    0.038585
  96 H :    0.045637
  97 H :    0.044200
  98 H :    0.040017
  99 H :    0.038981
 100 H :    0.034707
 101 H :    0.033384
 102 H :    0.033033
 103 H :    0.032399

  Mayer bond orders larger than 0.100000
B(  0-C ,  1-C ) :   1.6533 B(  0-C ,  6-C ) :   0.9974 B(  0-C , 18-C ) :   1.0329
B(  1-C ,  2-C ) :   1.1271 B(  1-C ,  4-C ) :   1.1696 B(  2-C ,  3-N ) :   2.9929
B(  4-C ,  5-N ) :   2.9960 B(  6-C ,  7-C ) :   1.2129 B(  6-C , 11-C ) :   1.4607
B(  7-C ,  8-C ) :   1.4719 B(  7-C , 16-C ) :   0.9219 B(  8-C ,  9-C ) :   1.1861
B(  8-C , 83-H ) :   1.0159 B(  9-C , 10-C ) :   1.2546 B(  9-C , 15-C ) :   1.2449
B( 10-C , 11-C ) :   1.2054 B( 10-C , 12-C ) :   1.2440 B( 11-C , 84-H ) :   0.9935
B( 12-C , 13-C ) :   1.4897 B( 12-C , 85-H ) :   0.9968 B( 13-C , 14-C ) :   1.2595
B( 13-C , 86-H ) :   0.9882 B( 14-C , 15-C ) :   1.4899 B( 14-C , 87-H ) :   0.9892
B( 15-C , 88-H ) :   0.9971 B( 16-C , 17-O ) :   2.2681 B( 16-C , 18-C ) :   0.9379
B( 18-C , 19-C ) :   1.6824 B( 19-C , 20-C ) :   1.1281 B( 19-C , 89-H ) :   0.9281
B( 20-C , 21-C ) :   1.3998 B( 20-C , 24-S ) :   1.0956 B( 21-C , 22-C ) :   1.3554
B( 21-C , 90-H ) :   0.9791 B( 22-C , 23-C ) :   1.4173 B( 22-C , 27-C ) :   0.9980
B( 23-C , 24-S ) :   1.1537 B( 23-C , 25-C ) :   1.1892 B( 25-C , 26-C ) :   1.4138
B( 25-C , 35-S ) :   1.1128 B( 26-C , 27-C ) :   0.9893 B( 26-C , 33-C ) :   1.3210
B( 27-C , 28-C ) :   1.7207 B( 28-C , 29-C ) :   1.1329 B( 28-C , 31-C ) :   1.1337
B( 29-C , 30-N ) :   2.9937 B( 31-C , 32-N ) :   2.9829 B( 33-C , 34-C ) :   1.4132
B( 33-C , 91-H ) :   0.9920 B( 34-C , 35-S ) :   1.1211 B( 34-C , 36-C ) :   1.1899
B( 36-C , 37-C ) :   1.5240 B( 36-C , 46-S ) :   1.1205 B( 37-C , 38-C ) :   0.9081
B( 37-C , 44-C ) :   1.2365 B( 38-C , 39-O ) :   2.1407 B( 38-C , 40-N ) :   1.0848
B( 40-N , 41-C ) :   0.9372 B( 40-N , 42-C ) :   1.0842 B( 41-C , 92-H ) :   0.9609
B( 41-C , 93-H ) :   0.9727 B( 41-C , 94-H ) :   0.9780 B( 42-C , 43-O ) :   2.1538
B( 42-C , 44-C ) :   0.9035 B( 44-C , 45-C ) :   1.5260 B( 45-C , 46-S ) :   1.1170
B( 45-C , 47-C ) :   1.1895 B( 47-C , 48-C ) :   1.4143 B( 47-C , 51-S ) :   1.1242
B( 48-C , 49-C ) :   1.3226 B( 48-C , 95-H ) :   0.9901 B( 49-C , 50-C ) :   1.4126
B( 49-C , 54-C ) :   0.9922 B( 50-C , 51-S ) :   1.1069 B( 50-C , 52-C ) :   1.1961
B( 52-C , 53-C ) :   1.3911 B( 52-C , 62-S ) :   1.1637 B( 53-C , 54-C ) :   0.9932
B( 53-C , 60-C ) :   1.3366 B( 54-C , 55-C ) :   1.7225 B( 55-C , 56-C ) :   1.1328
B( 55-C , 58-C ) :   1.1352 B( 56-C , 57-N ) :   2.9952 B( 58-C , 59-N ) :   2.9907
B( 60-C , 61-C ) :   1.4143 B( 60-C , 96-H ) :   0.9741 B( 61-C , 62-S ) :   1.0793
B( 61-C , 63-C ) :   1.1855 B( 63-C , 64-C ) :   1.6081 B( 63-C , 97-H ) :   0.9266
B( 64-C , 65-C ) :   1.0681 B( 64-C , 73-C ) :   0.9411 B( 65-C , 66-C ) :   1.6351
B( 65-C , 71-C ) :   0.9911 B( 66-C , 67-C ) :   1.1456 B( 66-C , 69-C ) :   1.1387
B( 67-C , 68-N ) :   2.9674 B( 69-C , 70-N ) :   2.9912 B( 71-C , 72-C ) :   1.2102
B( 71-C , 78-C ) :   1.4523 B( 72-C , 73-C ) :   0.9472 B( 72-C , 75-C ) :   1.4746
B( 73-C , 74-O ) :   2.1993 B( 75-C , 76-C ) :   1.1795 B( 75-C , 98-H ) :   1.0154
B( 76-C , 77-C ) :   1.2528 B( 76-C , 82-C ) :   1.2447 B( 77-C , 78-C ) :   1.2058
B( 77-C , 79-C ) :   1.2422 B( 78-C , 99-H ) :   0.9894 B( 79-C , 80-C ) :   1.4886
B( 79-C ,100-H ) :   0.9966 B( 80-C , 81-C ) :   1.2591 B( 80-C ,101-H ) :   0.9889
B( 81-C , 82-C ) :   1.4881 B( 81-C ,102-H ) :   0.9896 B( 82-C ,103-H ) :   0.9975

-----------------------------------------------------------------------------
         ABSORPTION SPECTRUM VIA TRANSITION ELECTRIC DIPOLE MOMENTS
-----------------------------------------------------------------------------
State   Energy  Wavelength   fosc         T2         TX        TY        TZ
        (cm-1)    (nm)                  (au**2)     (au)      (au)      (au)
-----------------------------------------------------------------------------
   0   13679.3    731.0   0.756435757  18.20472  -2.03054   3.47700  -1.41142
   1   14464.9    691.3   0.073851185   1.68080   0.64597  -0.75139   0.83603
   2   19677.7    508.2   1.865600405  31.21185  -2.84420   4.53649  -1.59458
   3   21301.8    469.4   0.218620385   3.37870   0.70138  -0.95244   1.40699
   4   22306.2    448.3   0.010445313   0.15416   0.16924  -0.26168   0.23883
   5   23303.5    429.1   0.082389044   1.16392  -0.75242   0.77316   0.00203
   6   25083.7    398.7   0.007850933   0.10304  -0.09378  -0.26259  -0.15904
   7   25356.7    394.4   0.043144391   0.56015  -0.60602   0.03016  -0.43815
   8   25959.8    385.2   0.286938081   3.63884   0.49708  -1.65360   0.81077
   9   26860.4    372.3   0.020900142   0.25616  -0.10553   0.14302  -0.47389
  10   27613.0    362.1   0.058641591   0.69915   0.00417   0.09473   0.83076
  11   28016.7    356.9   0.105599144   1.24085  -0.13492  -0.94555  -0.57322
  12   28391.1    352.2   0.029038406   0.33672   0.01978  -0.31322  -0.48808
  13   28545.4    350.3   0.022938752   0.26455  -0.28701  -0.24984  -0.34606
  14   28736.0    348.0   0.051146727   0.58596   0.15054   0.57076   0.48737
  15   29268.6    341.7   0.026151904   0.29416   0.08216   0.33963   0.41480
  16   29659.0    337.2   0.031948330   0.35462   0.31263  -0.14673  -0.48514
  17   29917.2    334.3   0.156364542   1.72065   0.12955   0.60198   1.15822
  18   30066.2    332.6   0.049483224   0.54182  -0.27953  -0.67218  -0.10890
  19   30410.9    328.8   0.226737231   2.45454  -0.52216  -0.37356  -1.42910
  20   30533.0    327.5   0.227471259   2.45263  -1.16576   0.15614   1.03405
  21   30758.5    325.1   0.488986892   5.23368   0.99008  -1.88896   0.82779
  22   31149.4    321.0   0.384238951   4.06095   0.24174   0.87411   1.79957
  23   31188.8    320.6   0.022075680   0.23302   0.18249  -0.44187   0.06685
  24   32091.9    311.6   0.102618788   1.05271  -0.03370  -0.82415  -0.61020
  25   32448.3    308.2   0.213592516   2.16705   0.68561  -1.22332   0.44776
  26   32546.5    307.3   0.201307043   2.03625  -1.08940   0.48803  -0.78185
  27   32701.6    305.8   0.101712768   1.02396  -0.48948  -0.15587  -0.87182
  28   33255.1    300.7   0.245021599   2.42561   0.27658  -1.47171  -0.42802
  29   33466.7    298.8   0.021935463   0.21578  -0.11129  -0.43577  -0.11618
  30   33745.5    296.3   0.055808603   0.54445   0.48298  -0.37723   0.41095
  31   34075.5    293.5   0.187716443   1.81357   0.01603  -1.34623  -0.03149
  32   34270.5    291.8   0.059047859   0.56723   0.31854   0.10594   0.67420
  33   34394.5    290.7   0.034946442   0.33450  -0.01154   0.11518   0.56665
  34   34586.6    289.1   0.193946958   1.84608  -0.35437  -1.21013   0.50605
  35   34809.3    287.3   0.564234549   5.33629  -0.74634  -0.21408  -2.17565
  36   35046.3    285.3   0.214827028   2.01801  -1.13992  -0.83636  -0.13814
  37   35191.9    284.2   0.164576075   1.53957  -0.10823   1.22974   0.12488
  38   35327.0    283.1   0.149487703   1.39307   0.13579  -1.02796  -0.56387
  39   35340.7    283.0   0.236012869   2.19855  -0.02229  -0.70005  -1.30690
  40   35536.4    281.4   0.002122029   0.01966  -0.12309   0.06166   0.02657
  41   35733.8    279.8   0.003017788   0.02780   0.10542  -0.07047   0.10828
  42   36007.8    277.7   0.036561774   0.33428  -0.27169   0.29592   0.41581
  43   36103.1    277.0   0.009730691   0.08873   0.09083  -0.24915   0.13566
  44   36140.9    276.7   0.095253652   0.86768   0.06552   0.77419  -0.51382
  45   36583.8    273.3   0.061574427   0.55410  -0.07439   0.63197   0.38623
  46   37046.6    269.9   0.005430840   0.04826  -0.21332   0.02174  -0.04778
  47   37089.7    269.6   0.016954203   0.15049  -0.05999   0.35193   0.15177
  48   37525.7    266.5   0.062148824   0.54523  -0.25003   0.32581  -0.61365
  49   37977.3    263.3   0.014981270   0.12987   0.03562  -0.30066   0.19546
  50   38096.1    262.5   0.051569771   0.44565   0.12253   0.41519   0.50818
  51   38259.9    261.4   0.051842023   0.44608   0.40117   0.28261   0.45308
  52   38409.7    260.4   0.034791351   0.29820   0.01739  -0.39371  -0.37800
  53   38588.9    259.1   0.035352313   0.30160  -0.08572  -0.52842  -0.12258
  54   38903.4    257.0   0.048848619   0.41337   0.20306   0.60604   0.06970
  55   38982.1    256.5   0.071012895   0.59972  -0.27130   0.72464   0.03184
  56   39046.3    256.1   0.009052337   0.07632   0.10476   0.25549   0.00866
  57   39373.6    254.0   0.033347448   0.27883   0.00614  -0.43986  -0.29208
  58   39469.9    253.4   0.002250735   0.01877  -0.10400   0.06363  -0.06252
  59   39723.7    251.7   0.109061482   0.90385   0.33692  -0.48763  -0.74334
  60   39743.7    251.6   0.200902101   1.66415   0.56010  -1.15583   0.12040
  61   39909.7    250.6   0.114887774   0.94770   0.14334   0.83965  -0.47132
  62   40234.8    248.5   0.098808320   0.80848  -0.04649  -0.48520  -0.75557

FINAL SINGLE POINT ENERGY     -5269.293352746858

DIPOLE MOMENT
-------------
                                X             Y             Z
Electronic contribution:     13.61535      15.69026      12.55103
Nuclear contribution   :    -15.91949     -17.76942     -10.70362
                        -----------------------------------------
Total Dipole Moment    :     -2.30414      -2.07916       1.84741
                        -----------------------------------------
Magnitude (a.u.)       :      3.61178
Magnitude (Debye)      :      9.18041

Rotational constants in cm-1:     0.001856     0.000153     0.000145
Rotational constants in MHz :    55.631129     4.599472     4.349548

                             ****ORCA TERMINATED NORMALLY****
TOTAL RUN TIME: 0 days 0 hours 11 minutes 5 seconds 86 msec
