                         Program Version 4.2.0 -  RELEASE  -
|  1> # ORCA input file
|  2> # SCF done       -173.554737457790          0.000992189277
|  3> ! CAM-B3LYP def2-SVP def2/J RIJCOSX Grid4 TightSCF
|  4> %maxcore 5000
|  5> %tddft
|  6>     Mode sTDDFT
|  7>     Ethresh 5.0
|  8>     maxcore 5000
|  9> end
| 10>
| 11> %pal
| 12>   nprocs 6
| 13>   end
| 14> * xyz 0 1
| 15>    C       15.04199        -8.96861        -6.44072
| 16>    C       15.11702       -10.33239        -6.49900
| 17>    F       16.23401       -10.91467        -6.97614
| 18>    C       14.06959       -11.16121        -6.07684
| 19>    C       12.92882       -10.58716        -5.58761
| 20>    C       12.79779        -9.18627        -5.50426
| 21>    C       13.87401        -8.36089        -5.94138
| 22>    C       13.76250        -6.95172        -5.87698
| 23>    C       12.61556        -6.39288        -5.38496
| 24>    C       11.54910        -7.22250        -4.93293
| 25>    C       11.62529        -8.58316        -4.99348
| 26>    C       10.45846        -6.37029        -4.41507
| 27>    O        9.37812        -6.72048        -3.99214
| 28>    C       10.99103        -4.98688        -4.46256
| 29>    C       12.20811        -4.99821        -5.23157
| 30>    C       12.73553        -3.94173        -5.93660
| 31>    C       12.11459        -2.68024        -6.00783
| 32>    N       11.60173        -1.65881        -6.12360
| 33>    C       13.88919        -4.02943        -6.73632
| 34>    N       14.84074        -4.04086        -7.37990
| 35>    C       10.35592        -3.99763        -3.75592
| 36>    C       10.86913        -2.79273        -3.26038
| 37>    S       12.56953        -2.47415        -3.10462
| 38>    C       12.32741        -0.92306        -2.38004
| 39>    C       10.95444        -0.66885        -2.20655
| 40>    C       10.13266        -1.72497        -2.70567
| 41>    C        8.73368        -1.62495        -2.63523
| 42>    C        8.17879        -0.52295        -2.04637
| 43>    F        6.84562        -0.40912        -1.96041
| 44>    C        8.98878         0.49520        -1.50052
| 45>    F        8.40224         1.53817        -0.89083
| 46>    C       10.35198         0.43303        -1.57061
| 47>    C       13.48448        -0.14964        -2.10309
| 48>    C       13.54814         1.19612        -1.97182
| 49>    C       14.75060         1.95073        -1.75378
| 50>    C       15.85817         1.58051        -1.08896
| 51>    C       16.00898         0.32161        -0.29894
| 52>    C       17.05127         2.50888        -1.03771
| 53>    N       17.22811         3.08653         0.27259
| 54>    C       18.03896         2.57923         1.21713
| 55>    C       18.04765         2.98988         2.51751
| 56>    C       18.93434         2.49117         3.48193
| 57>    C       18.97780         2.93192         4.78294
| 58>    C       19.81937         2.48128         5.82510
| 59>    C       19.63778         3.13019         7.01141
| 60>    C       18.64531         4.13226         6.96457
| 61>    S       17.93497         4.22000         5.37487
| 62>    C       18.22764         4.98905         7.97038
| 63>    C       18.66436         5.07215         9.30681
| 64>    C       18.04169         6.04945        10.02576
| 65>    C       17.08318         6.79416         9.29198
| 66>    S       16.99837         6.19226         7.65045
| 67>    C       16.33756         7.83293         9.79528
| 68>    C       15.39204         8.62810         9.12278
| 69>    S       14.56115         9.90347        10.00905
| 70>    C       13.64140        10.43509         8.65639
| 71>    C       13.94314         9.67466         7.55250
| 72>    C       14.92195         8.66461         7.81918
| 73>    O       15.18132         7.95396         6.70036
| 74>    C       14.39269         8.48915         5.73355
| 75>    N       14.46411         7.92826         4.44204
| 76>    O       13.75638         8.43584         3.58825
| 77>    O       15.20968         6.98670         4.25919
| 78>    C       13.61941         9.53110         6.17630
| 79>    H       15.86691        -8.36099        -6.77869
| 80>    H       14.18513       -12.23119        -6.14685
| 81>    H       12.10791       -11.20523        -5.25617
| 82>    H       14.59289        -6.34898        -6.20957
| 83>    H       10.80235        -9.19512        -4.65575
| 84>    H        9.34086        -4.23936        -3.45700
| 85>    H        8.09501        -2.39713        -3.03097
| 86>    H       10.93813         1.21239        -1.11512
| 87>    H       14.40746        -0.71281        -2.11449
| 88>    H       12.66094         1.78664        -2.14847
| 89>    H       14.73281         2.94414        -2.18718
| 90>    H       15.04122        -0.08568        -0.01862
| 91>    H       16.58187         0.51729         0.60764
| 92>    H       16.54955        -0.43132        -0.87380
| 93>    H       16.93158         3.31865        -1.76281
| 94>    H       17.95844         1.95027        -1.28668
| 95>    H       16.51486         3.73349         0.57894
| 96>    H       18.75004         1.83835         0.87406
| 97>    H       17.34304         3.74833         2.83208
| 98>    H       19.62955         1.71334         3.19292
| 99>    H       20.53420         1.69236         5.66796
|100>    H       20.19105         2.92005         7.90915
|101>    H       19.41889         4.41662         9.70386
|102>    H       18.24168         6.26524        11.06046
|103>    H       16.49414         8.08090        10.83659
|104>    H       12.95650        11.25008         8.75671
|105>    H       12.92823        10.09818         5.58834
|106> *
|107>
|108>                          ****END OF INPUT****

CARTESIAN COORDINATES (ANGSTROEM)
---------------------------------
  C     15.041990   -8.968610   -6.440720
  C     15.117020  -10.332390   -6.499000
  F     16.234010  -10.914670   -6.976140
  C     14.069590  -11.161210   -6.076840
  C     12.928820  -10.587160   -5.587610
  C     12.797790   -9.186270   -5.504260
  C     13.874010   -8.360890   -5.941380
  C     13.762500   -6.951720   -5.876980
  C     12.615560   -6.392880   -5.384960
  C     11.549100   -7.222500   -4.932930
  C     11.625290   -8.583160   -4.993480
  C     10.458460   -6.370290   -4.415070
  O      9.378120   -6.720480   -3.992140
  C     10.991030   -4.986880   -4.462560
  C     12.208110   -4.998210   -5.231570
  C     12.735530   -3.941730   -5.936600
  C     12.114590   -2.680240   -6.007830
  N     11.601730   -1.658810   -6.123600
  C     13.889190   -4.029430   -6.736320
  N     14.840740   -4.040860   -7.379900
  C     10.355920   -3.997630   -3.755920
  C     10.869130   -2.792730   -3.260380
  S     12.569530   -2.474150   -3.104620
  C     12.327410   -0.923060   -2.380040
  C     10.954440   -0.668850   -2.206550
  C     10.132660   -1.724970   -2.705670
  C      8.733680   -1.624950   -2.635230
  C      8.178790   -0.522950   -2.046370
  F      6.845620   -0.409120   -1.960410
  C      8.988780    0.495200   -1.500520
  F      8.402240    1.538170   -0.890830
  C     10.351980    0.433030   -1.570610
  C     13.484480   -0.149640   -2.103090
  C     13.548140    1.196120   -1.971820
  C     14.750600    1.950730   -1.753780
  C     15.858170    1.580510   -1.088960
  C     16.008980    0.321610   -0.298940
  C     17.051270    2.508880   -1.037710
  N     17.228110    3.086530    0.272590
  C     18.038960    2.579230    1.217130
  C     18.047650    2.989880    2.517510
  C     18.934340    2.491170    3.481930
  C     18.977800    2.931920    4.782940
  C     19.819370    2.481280    5.825100
  C     19.637780    3.130190    7.011410
  C     18.645310    4.132260    6.964570
  S     17.934970    4.220000    5.374870
  C     18.227640    4.989050    7.970380
  C     18.664360    5.072150    9.306810
  C     18.041690    6.049450   10.025760
  C     17.083180    6.794160    9.291980
  S     16.998370    6.192260    7.650450
  C     16.337560    7.832930    9.795280
  C     15.392040    8.628100    9.122780
  S     14.561150    9.903470   10.009050
  C     13.641400   10.435090    8.656390
  C     13.943140    9.674660    7.552500
  C     14.921950    8.664610    7.819180
  O     15.181320    7.953960    6.700360
  C     14.392690    8.489150    5.733550
  N     14.464110    7.928260    4.442040
  O     13.756380    8.435840    3.588250
  O     15.209680    6.986700    4.259190
  C     13.619410    9.531100    6.176300
  H     15.866910   -8.360990   -6.778690
  H     14.185130  -12.231190   -6.146850
  H     12.107910  -11.205230   -5.256170
  H     14.592890   -6.348980   -6.209570
  H     10.802350   -9.195120   -4.655750
  H      9.340860   -4.239360   -3.457000
  H      8.095010   -2.397130   -3.030970
  H     10.938130    1.212390   -1.115120
  H     14.407460   -0.712810   -2.114490
  H     12.660940    1.786640   -2.148470
  H     14.732810    2.944140   -2.187180
  H     15.041220   -0.085680   -0.018620
  H     16.581870    0.517290    0.607640
  H     16.549550   -0.431320   -0.873800
  H     16.931580    3.318650   -1.762810
  H     17.958440    1.950270   -1.286680
  H     16.514860    3.733490    0.578940
  H     18.750040    1.838350    0.874060
  H     17.343040    3.748330    2.832080
  H     19.629550    1.713340    3.192920
  H     20.534200    1.692360    5.667960
  H     20.191050    2.920050    7.909150
  H     19.418890    4.416620    9.703860
  H     18.241680    6.265240   11.060460
  H     16.494140    8.080900   10.836590
  H     12.956500   11.250080    8.756710
  H     12.928230   10.098180    5.588340

 Total Charge           Charge          ....    0
 Multiplicity           Mult            ....    1
 Number of Electrons    NEL             ....  472
 Basis Dimension        Dim             .... 1047

ORBITAL ENERGIES
----------------

  NO   OCC          E(Eh)            E(eV)
   0   2.0000     -88.987213     -2421.4652
   1   2.0000     -88.959626     -2420.7145
   2   2.0000     -88.925764     -2419.7931
   3   2.0000     -88.921782     -2419.6847
   4   2.0000     -24.799136      -674.8188
   5   2.0000     -24.795499      -674.7198
   6   2.0000     -24.783499      -674.3933
   7   2.0000     -19.295026      -525.0443
   8   2.0000     -19.236942      -523.4638
   9   2.0000     -19.234243      -523.3903
  10   2.0000     -19.208158      -522.6806
  11   2.0000     -14.647809      -398.5871
  12   2.0000     -14.446104      -393.0985
  13   2.0000     -14.411784      -392.1646
  14   2.0000     -14.410875      -392.1398
  15   2.0000     -10.384276      -282.5705
  16   2.0000     -10.379236      -282.4334
  17   2.0000     -10.377048      -282.3738
  18   2.0000     -10.367072      -282.1024
  19   2.0000     -10.360558      -281.9251
  20   2.0000     -10.339770      -281.3594
  21   2.0000     -10.337897      -281.3085
  22   2.0000     -10.336902      -281.2814
  23   2.0000     -10.331648      -281.1384
  24   2.0000     -10.325902      -280.9821
  25   2.0000     -10.323123      -280.9065
  26   2.0000     -10.321446      -280.8608
  27   2.0000     -10.321006      -280.8489
  28   2.0000     -10.315018      -280.6859
  29   2.0000     -10.314886      -280.6823
  30   2.0000     -10.313204      -280.6366
  31   2.0000     -10.310402      -280.5603
  32   2.0000     -10.305637      -280.4306
  33   2.0000     -10.305188      -280.4184
  34   2.0000     -10.304577      -280.4018
  35   2.0000     -10.304056      -280.3876
  36   2.0000     -10.303306      -280.3672
  37   2.0000     -10.302522      -280.3459
  38   2.0000     -10.301790      -280.3260
  39   2.0000     -10.301698      -280.3235
  40   2.0000     -10.301008      -280.3047
  41   2.0000     -10.298236      -280.2292
  42   2.0000     -10.296459      -280.1809
  43   2.0000     -10.296224      -280.1745
  44   2.0000     -10.295488      -280.1545
  45   2.0000     -10.295287      -280.1490
  46   2.0000     -10.294928      -280.1392
  47   2.0000     -10.293938      -280.1123
  48   2.0000     -10.292111      -280.0626
  49   2.0000     -10.291360      -280.0421
  50   2.0000     -10.287567      -279.9389
  51   2.0000     -10.286806      -279.9182
  52   2.0000     -10.286429      -279.9080
  53   2.0000     -10.285868      -279.8927
  54   2.0000     -10.283662      -279.8327
  55   2.0000     -10.282601      -279.8038
  56   2.0000     -10.280920      -279.7581
  57   2.0000     -10.276936      -279.6497
  58   2.0000     -10.273477      -279.5555
  59   2.0000     -10.271273      -279.4955
  60   2.0000     -10.268623      -279.4234
  61   2.0000     -10.267378      -279.3895
  62   2.0000     -10.263476      -279.2834
  63   2.0000     -10.257702      -279.1262
  64   2.0000      -8.081904      -219.9198
  65   2.0000      -8.054708      -219.1798
  66   2.0000      -8.022241      -218.2963
  67   2.0000      -8.018045      -218.1821
  68   2.0000      -6.050823      -164.6513
  69   2.0000      -6.046761      -164.5407
  70   2.0000      -6.044741      -164.4858
  71   2.0000      -6.024068      -163.9232
  72   2.0000      -6.019807      -163.8073
  73   2.0000      -6.016914      -163.7286
  74   2.0000      -5.991958      -163.0495
  75   2.0000      -5.987917      -162.9395
  76   2.0000      -5.987805      -162.9365
  77   2.0000      -5.983660      -162.8237
  78   2.0000      -5.983128      -162.8092
  79   2.0000      -5.978821      -162.6920
  80   2.0000      -1.319833       -35.9145
  81   2.0000      -1.318077       -35.8667
  82   2.0000      -1.304355       -35.4933
  83   2.0000      -1.297880       -35.3171
  84   2.0000      -1.217375       -33.1265
  85   2.0000      -1.133434       -30.8423
  86   2.0000      -1.122922       -30.5563
  87   2.0000      -1.048563       -28.5329
  88   2.0000      -1.024368       -27.8745
  89   2.0000      -1.013315       -27.5737
  90   2.0000      -0.997032       -27.1306
  91   2.0000      -0.989845       -26.9351
  92   2.0000      -0.981807       -26.7163
  93   2.0000      -0.976061       -26.5600
  94   2.0000      -0.973634       -26.4939
  95   2.0000      -0.959681       -26.1142
  96   2.0000      -0.955071       -25.9888
  97   2.0000      -0.941537       -25.6205
  98   2.0000      -0.926179       -25.2026
  99   2.0000      -0.925071       -25.1725
 100   2.0000      -0.914964       -24.8974
 101   2.0000      -0.896232       -24.3877
 102   2.0000      -0.890926       -24.2433
 103   2.0000      -0.884585       -24.0708
 104   2.0000      -0.882606       -24.0169
 105   2.0000      -0.874173       -23.7874
 106   2.0000      -0.865333       -23.5469
 107   2.0000      -0.861739       -23.4491
 108   2.0000      -0.851953       -23.1828
 109   2.0000      -0.838445       -22.8152
 110   2.0000      -0.832585       -22.6558
 111   2.0000      -0.828308       -22.5394
 112   2.0000      -0.822939       -22.3933
 113   2.0000      -0.808828       -22.0093
 114   2.0000      -0.805167       -21.9097
 115   2.0000      -0.802261       -21.8306
 116   2.0000      -0.788304       -21.4508
 117   2.0000      -0.776613       -21.1327
 118   2.0000      -0.769433       -20.9373
 119   2.0000      -0.756412       -20.5830
 120   2.0000      -0.750499       -20.4221
 121   2.0000      -0.748139       -20.3579
 122   2.0000      -0.729428       -19.8487
 123   2.0000      -0.720880       -19.6161
 124   2.0000      -0.718887       -19.5619
 125   2.0000      -0.706796       -19.2329
 126   2.0000      -0.706188       -19.2163
 127   2.0000      -0.696626       -18.9561
 128   2.0000      -0.692284       -18.8380
 129   2.0000      -0.680535       -18.5183
 130   2.0000      -0.675216       -18.3736
 131   2.0000      -0.672688       -18.3048
 132   2.0000      -0.665628       -18.1126
 133   2.0000      -0.652699       -17.7608
 134   2.0000      -0.648071       -17.6349
 135   2.0000      -0.641064       -17.4443
 136   2.0000      -0.635810       -17.3013
 137   2.0000      -0.632212       -17.2034
 138   2.0000      -0.632057       -17.1991
 139   2.0000      -0.627670       -17.0798
 140   2.0000      -0.624300       -16.9881
 141   2.0000      -0.621658       -16.9162
 142   2.0000      -0.616956       -16.7882
 143   2.0000      -0.615427       -16.7466
 144   2.0000      -0.611496       -16.6396
 145   2.0000      -0.608159       -16.5489
 146   2.0000      -0.605367       -16.4729
 147   2.0000      -0.599109       -16.3026
 148   2.0000      -0.597149       -16.2493
 149   2.0000      -0.587171       -15.9777
 150   2.0000      -0.584794       -15.9130
 151   2.0000      -0.581804       -15.8317
 152   2.0000      -0.578856       -15.7515
 153   2.0000      -0.574072       -15.6213
 154   2.0000      -0.569567       -15.4987
 155   2.0000      -0.563053       -15.3214
 156   2.0000      -0.561328       -15.2745
 157   2.0000      -0.558922       -15.2090
 158   2.0000      -0.555828       -15.1248
 159   2.0000      -0.553913       -15.0728
 160   2.0000      -0.553387       -15.0584
 161   2.0000      -0.552198       -15.0261
 162   2.0000      -0.546004       -14.8575
 163   2.0000      -0.545860       -14.8536
 164   2.0000      -0.540010       -14.6944
 165   2.0000      -0.539549       -14.6819
 166   2.0000      -0.531819       -14.4715
 167   2.0000      -0.530048       -14.4233
 168   2.0000      -0.523264       -14.2387
 169   2.0000      -0.520953       -14.1758
 170   2.0000      -0.519930       -14.1480
 171   2.0000      -0.518462       -14.1081
 172   2.0000      -0.512906       -13.9569
 173   2.0000      -0.511856       -13.9283
 174   2.0000      -0.508774       -13.8445
 175   2.0000      -0.503629       -13.7044
 176   2.0000      -0.502845       -13.6831
 177   2.0000      -0.501220       -13.6389
 178   2.0000      -0.497948       -13.5499
 179   2.0000      -0.493646       -13.4328
 180   2.0000      -0.489268       -13.3137
 181   2.0000      -0.485717       -13.2170
 182   2.0000      -0.482725       -13.1356
 183   2.0000      -0.480233       -13.0678
 184   2.0000      -0.479672       -13.0525
 185   2.0000      -0.477593       -12.9960
 186   2.0000      -0.473051       -12.8724
 187   2.0000      -0.469991       -12.7891
 188   2.0000      -0.467019       -12.7082
 189   2.0000      -0.462793       -12.5932
 190   2.0000      -0.461158       -12.5487
 191   2.0000      -0.459818       -12.5123
 192   2.0000      -0.458329       -12.4718
 193   2.0000      -0.456355       -12.4181
 194   2.0000      -0.453977       -12.3533
 195   2.0000      -0.450656       -12.2630
 196   2.0000      -0.447626       -12.1805
 197   2.0000      -0.446173       -12.1410
 198   2.0000      -0.443402       -12.0656
 199   2.0000      -0.441178       -12.0051
 200   2.0000      -0.440619       -11.9898
 201   2.0000      -0.437204       -11.8969
 202   2.0000      -0.434362       -11.8196
 203   2.0000      -0.433854       -11.8058
 204   2.0000      -0.431444       -11.7402
 205   2.0000      -0.424076       -11.5397
 206   2.0000      -0.423460       -11.5229
 207   2.0000      -0.421111       -11.4590
 208   2.0000      -0.419367       -11.4116
 209   2.0000      -0.414892       -11.2898
 210   2.0000      -0.414082       -11.2677
 211   2.0000      -0.403363       -10.9761
 212   2.0000      -0.402693       -10.9578
 213   2.0000      -0.396347       -10.7852
 214   2.0000      -0.389628       -10.6023
 215   2.0000      -0.384042       -10.4503
 216   2.0000      -0.380768       -10.3612
 217   2.0000      -0.374987       -10.2039
 218   2.0000      -0.374332       -10.1861
 219   2.0000      -0.373217       -10.1558
 220   2.0000      -0.370520       -10.0824
 221   2.0000      -0.363397        -9.8885
 222   2.0000      -0.344788        -9.3822
 223   2.0000      -0.340738        -9.2720
 224   2.0000      -0.331642        -9.0245
 225   2.0000      -0.326277        -8.8784
 226   2.0000      -0.323618        -8.8061
 227   2.0000      -0.321060        -8.7365
 228   2.0000      -0.309991        -8.4353
 229   2.0000      -0.308931        -8.4064
 230   2.0000      -0.304887        -8.2964
 231   2.0000      -0.296065        -8.0564
 232   2.0000      -0.293877        -7.9968
 233   2.0000      -0.257036        -6.9943
 234   2.0000      -0.250101        -6.8056
 235   2.0000      -0.186668        -5.0795
 236   0.0000      -0.107089        -2.9140
 237   0.0000      -0.063764        -1.7351
 238   0.0000      -0.058837        -1.6010
 239   0.0000      -0.048476        -1.3191
 240   0.0000      -0.043530        -1.1845

MULLIKEN ATOMIC CHARGES
-----------------------
   0 C :   -0.097257
   1 C :    0.303958
   2 F :   -0.193405
   3 C :   -0.034309
   4 C :   -0.009677
   5 C :    0.099818
   6 C :    0.101005
   7 C :   -0.084852
   8 C :    0.036622
   9 C :    0.012718
  10 C :   -0.082207
  11 C :    0.140162
  12 O :   -0.151646
  13 C :   -0.147332
  14 C :    0.255836
  15 C :   -0.329026
  16 C :   -0.219773
  17 N :    0.168813
  18 C :   -0.173284
  19 N :    0.144181
  20 C :    0.021962
  21 C :   -0.134623
  22 S :    0.194102
  23 C :   -0.102880
  24 C :    0.118861
  25 C :    0.167693
  26 C :   -0.109469
  27 C :    0.240630
  28 F :   -0.169362
  29 C :    0.225586
  30 F :   -0.176402
  31 C :   -0.111449
  32 C :    0.031896
  33 C :    0.010390
  34 C :   -0.003869
  35 C :   -0.178305
  36 C :    0.074003
  37 C :    0.200296
  38 N :   -0.140582
  39 C :    0.049163
  40 C :   -0.035746
  41 C :   -0.003957
  42 C :   -0.042315
  43 C :    0.041673
  44 C :    0.009221
  45 C :   -0.038068
  46 S :    0.073739
  47 C :   -0.055171
  48 C :    0.038270
  49 C :    0.014353
  50 C :   -0.022091
  51 S :    0.080779
  52 C :    0.027740
  53 C :   -0.222690
  54 S :    0.133457
  55 C :   -0.151977
  56 C :    0.129919
  57 C :    0.190843
  58 O :   -0.194515
  59 C :    0.247442
  60 N :    0.273110
  61 O :   -0.259953
  62 O :   -0.236527
  63 C :   -0.086905
  64 H :   -0.003602
  65 H :    0.003788
  66 H :   -0.009814
  67 H :   -0.006660
  68 H :   -0.012987
  69 H :    0.020440
  70 H :    0.002689
  71 H :   -0.005472
  72 H :   -0.004526
  73 H :    0.011532
  74 H :   -0.008600
  75 H :    0.032672
  76 H :    0.028351
  77 H :    0.035485
  78 H :    0.016633
  79 H :    0.020878
  80 H :    0.127934
  81 H :    0.003348
  82 H :    0.002833
  83 H :   -0.025293
  84 H :   -0.020870
  85 H :   -0.022576
  86 H :   -0.021157
  87 H :   -0.023297
  88 H :   -0.032571
  89 H :    0.024315
  90 H :    0.007908
Sum of atomic charges:   -0.0000000

LOEWDIN ATOMIC CHARGES
----------------------
   0 C :   -0.043039
   1 C :    0.092819
   2 F :   -0.067445
   3 C :   -0.038600
   4 C :    0.004106
   5 C :   -0.019481
   6 C :    0.002570
   7 C :    0.008046
   8 C :   -0.016208
   9 C :   -0.057695
  10 C :    0.032089
  11 C :    0.080607
  12 O :   -0.153962
  13 C :   -0.111656
  14 C :    0.060080
  15 C :   -0.154937
  16 C :   -0.037578
  17 N :   -0.055089
  18 C :   -0.020435
  19 N :   -0.059781
  20 C :    0.048864
  21 C :   -0.197830
  22 S :    0.528513
  23 C :   -0.127479
  24 C :   -0.050048
  25 C :   -0.008845
  26 C :   -0.037539
  27 C :    0.077759
  28 F :   -0.047020
  29 C :    0.061503
  30 F :   -0.054248
  31 C :   -0.031514
  32 C :   -0.049951
  33 C :    0.000305
  34 C :   -0.057304
  35 C :   -0.018223
  36 C :   -0.054434
  37 C :    0.047856
  38 N :    0.008774
  39 C :    0.041879
  40 C :   -0.122651
  41 C :   -0.030724
  42 C :   -0.179706
  43 C :   -0.025953
  44 C :   -0.054759
  45 C :   -0.164094
  46 S :    0.374773
  47 C :   -0.207401
  48 C :   -0.027599
  49 C :   -0.055370
  50 C :   -0.136132
  51 S :    0.391033
  52 C :   -0.115176
  53 C :   -0.190076
  54 S :    0.460952
  55 C :   -0.206521
  56 C :   -0.081186
  57 C :    0.001317
  58 O :   -0.002412
  59 C :    0.022749
  60 N :    0.273991
  61 O :   -0.220164
  62 O :   -0.199112
  63 C :   -0.011291
  64 H :    0.042596
  65 H :    0.041677
  66 H :    0.035431
  67 H :    0.038356
  68 H :    0.039235
  69 H :    0.047872
  70 H :    0.045559
  71 H :    0.041840
  72 H :    0.032793
  73 H :    0.033519
  74 H :    0.030822
  75 H :    0.035814
  76 H :    0.035976
  77 H :    0.038828
  78 H :    0.029523
  79 H :    0.033488
  80 H :    0.085566
  81 H :    0.026255
  82 H :    0.022978
  83 H :    0.028831
  84 H :    0.029840
  85 H :    0.027996
  86 H :    0.028858
  87 H :    0.028009
  88 H :    0.028971
  89 H :    0.024816
  90 H :    0.044632

  Mayer bond orders larger than 0.100000
B(  0-C ,  1-C ) :   1.4399 B(  0-C ,  6-C ) :   1.2034 B(  0-C , 64-H ) :   1.0061
B(  1-C ,  2-F ) :   1.0846 B(  1-C ,  3-C ) :   1.2571 B(  3-C ,  4-C ) :   1.4573
B(  3-C , 65-H ) :   0.9940 B(  4-C ,  5-C ) :   1.2371 B(  4-C , 66-H ) :   0.9967
B(  5-C ,  6-C ) :   1.2588 B(  5-C , 10-C ) :   1.1865 B(  6-C ,  7-C ) :   1.1984
B(  7-C ,  8-C ) :   1.4679 B(  7-C , 67-H ) :   0.9940 B(  8-C ,  9-C ) :   1.2160
B(  8-C , 14-C ) :   0.9972 B(  9-C , 10-C ) :   1.4780 B(  9-C , 11-C ) :   0.9199
B( 10-C , 68-H ) :   1.0148 B( 11-C , 12-O ) :   2.2554 B( 11-C , 13-C ) :   0.9568
B( 13-C , 14-C ) :   1.0651 B( 13-C , 20-C ) :   1.5669 B( 14-C , 15-C ) :   1.6218
B( 15-C , 16-C ) :   1.1598 B( 15-C , 18-C ) :   1.1398 B( 16-C , 17-N ) :   3.0227
B( 18-C , 19-N ) :   2.9813 B( 20-C , 21-C ) :   1.2320 B( 20-C , 69-H ) :   0.9366
B( 21-C , 22-S ) :   1.1136 B( 21-C , 25-C ) :   1.2676 B( 22-S , 23-C ) :   1.2124
B( 23-C , 24-C ) :   1.3125 B( 23-C , 32-C ) :   1.1545 B( 24-C , 25-C ) :   1.2345
B( 24-C , 31-C ) :   1.1615 B( 25-C , 26-C ) :   1.1973 B( 26-C , 27-C ) :   1.4746
B( 26-C , 31-C ) :   0.1098 B( 26-C , 70-H ) :   0.9980 B( 27-C , 28-F ) :   1.1371
B( 27-C , 29-C ) :   1.1678 B( 29-C , 30-F ) :   1.1282 B( 29-C , 31-C ) :   1.4938
B( 31-C , 71-H ) :   0.9964 B( 32-C , 33-C ) :   1.6906 B( 32-C , 72-H ) :   0.9451
B( 33-C , 34-C ) :   1.1103 B( 33-C , 73-H ) :   0.9592 B( 34-C , 35-C ) :   1.8102
B( 34-C , 74-H ) :   0.9502 B( 35-C , 36-C ) :   1.0741 B( 35-C , 37-C ) :   1.0369
B( 36-C , 75-H ) :   0.9479 B( 36-C , 76-H ) :   0.9430 B( 36-C , 77-H ) :   0.9393
B( 37-C , 38-N ) :   1.0118 B( 37-C , 78-H ) :   0.9417 B( 37-C , 79-H ) :   0.9306
B( 38-N , 39-C ) :   1.2346 B( 38-N , 80-H ) :   0.9354 B( 39-C , 40-C ) :   1.5760
B( 39-C , 81-H ) :   0.9634 B( 40-C , 41-C ) :   1.1825 B( 40-C , 82-H ) :   0.9645
B( 41-C , 42-C ) :   1.5684 B( 41-C , 83-H ) :   0.9804 B( 42-C , 43-C ) :   1.1548
B( 42-C , 46-S ) :   1.0128 B( 43-C , 44-C ) :   1.5752 B( 43-C , 84-H ) :   0.9987
B( 44-C , 45-C ) :   1.1970 B( 44-C , 85-H ) :   0.9945 B( 45-C , 46-S ) :   1.0672
B( 45-C , 47-C ) :   1.4840 B( 47-C , 48-C ) :   1.2025 B( 47-C , 51-S ) :   1.0218
B( 48-C , 49-C ) :   1.5733 B( 48-C , 86-H ) :   0.9935 B( 49-C , 50-C ) :   1.1531
B( 49-C , 87-H ) :   0.9995 B( 50-C , 51-S ) :   1.0571 B( 50-C , 52-C ) :   1.5783
B( 52-C , 53-C ) :   1.1610 B( 52-C , 88-H ) :   0.9417 B( 53-C , 54-S ) :   1.1355
B( 53-C , 55-C ) :   0.1080 B( 53-C , 57-C ) :   1.4227 B( 54-S , 55-C ) :   1.1627
B( 55-C , 56-C ) :   1.4334 B( 55-C , 89-H ) :   0.9775 B( 56-C , 57-C ) :   1.2309
B( 56-C , 63-C ) :   1.0656 B( 57-C , 58-O ) :   1.0786 B( 58-O , 59-C ) :   1.1261
B( 59-C , 60-N ) :   0.9224 B( 59-C , 63-C ) :   1.5639 B( 60-N , 61-O ) :   1.5253
B( 60-N , 62-O ) :   1.5116 B( 61-O , 62-O ) :   0.2755 B( 63-C , 90-H ) :   1.0267

-----------------------------------------------------------------------------
         ABSORPTION SPECTRUM VIA TRANSITION ELECTRIC DIPOLE MOMENTS
-----------------------------------------------------------------------------
State   Energy  Wavelength   fosc         T2         TX        TY        TZ
        (cm-1)    (nm)                  (au**2)     (au)      (au)      (au)
-----------------------------------------------------------------------------
   0    8731.9   1145.2   0.096789718   3.64918   0.42697   1.25471   1.37571
   1   11424.5    875.3   0.185568955   5.34743   1.03919  -1.73206  -1.12582
   2   15433.5    647.9   1.430121757  30.50586   0.62027  -3.93669  -3.82408
   3   16118.6    620.4   0.063795855   1.30299   0.98260   0.54668  -0.19653
   4   20166.6    495.9   0.026383615   0.43070  -0.60471   0.24768   0.06069
   5   22246.6    449.5   0.026798131   0.39657   0.60089  -0.15342   0.10936
   6   24039.0    416.0   0.001027849   0.01408  -0.05295  -0.00005   0.10617
   7   24565.4    407.1   0.021249729   0.28478   0.36249  -0.39152  -0.00982
   8   24766.6    403.8   0.034813172   0.46276  -0.60555   0.30638  -0.04682
   9   26161.6    382.2   0.087240200   1.09781   0.80325   0.59700   0.31015
  10   26313.4    380.0   0.032302099   0.40414  -0.37548   0.40888  -0.30979
  11   27116.5    368.8   0.314983434   3.82411   1.25932   1.49096   0.12354
  12   27840.8    359.2   0.066112329   0.78177  -0.44250   0.23565  -0.72831
  13   28617.4    349.4   0.119983952   1.38028   0.30592   1.12115   0.17239
  14   28883.3    346.2   0.050050286   0.57047   0.14245  -0.44040  -0.59685
  15   29351.2    340.7   0.952036985  10.67835   2.07220  -1.22156   2.21181
  16   30075.3    332.5   0.172222490   1.88519  -0.84170   0.83404   0.69362
  17   30260.8    330.5   0.183694537   1.99844  -1.04444  -0.01802   0.95251
  18   31562.9    316.8   0.002234501   0.02331  -0.01308  -0.14606  -0.04246
  19   31955.9    312.9   0.006526438   0.06724  -0.18048  -0.02326   0.18472
  20   32386.3    308.8   0.000275814   0.00280  -0.01387  -0.00114  -0.05109
  21   32665.6    306.1   0.084450813   0.85112   0.21028   0.89064   0.11685
  22   32697.5    305.8   0.060935215   0.61352  -0.14062   0.60484  -0.47740
  23   33478.6    298.7   0.046839677   0.46060  -0.51082   0.26896   0.35682
  24   33853.4    295.4   0.143469334   1.39519   0.74050  -0.85923   0.32950
  25   33888.6    295.1   0.250144788   2.43004   0.58531  -1.41471  -0.29335
  26   34037.6    293.8   0.010828834   0.10474  -0.00222  -0.16409  -0.27894
  27   34060.2    293.6   0.338684075   3.27358   1.15421  -1.33688  -0.39257
  28   35301.0    283.3   0.094540462   0.88167  -0.86009  -0.01281   0.37649
  29   35353.7    282.9   0.011946707   0.11125   0.32135   0.07716  -0.04504
  30   35463.7    282.0   0.070654869   0.65589   0.62426   0.30508  -0.41607
  31   35622.2    280.7   0.382052594   3.53084  -0.59879  -0.86344  -1.55781
  32   35813.6    279.2   0.004198346   0.03859   0.12353   0.14047  -0.06002
  33   36443.5    274.4   0.145316498   1.31272  -0.44140   0.24392   1.02878
  34   36585.2    273.3   0.162571709   1.46290  -0.36842   1.12710   0.23837
  35   36794.5    271.8   0.017012684   0.15222  -0.34270   0.17751  -0.05713
  36   37155.2    269.1   0.008217944   0.07281   0.07879  -0.11193  -0.23255
  37   37558.1    266.3   0.046037985   0.40354  -0.14956  -0.19834  -0.58467
  38   37679.5    265.4   0.178177915   1.55677   0.64248   0.69340  -0.81436
  39   37969.2    263.4   0.003766536   0.03266   0.01707   0.17849  -0.02257
  40   38738.8    258.1   0.010371529   0.08814  -0.05873   0.21889   0.19177
  41   39298.5    254.5   0.219979402   1.84282  -1.03445  -0.71217   0.51532
  42   39332.2    254.2   0.006992051   0.05852   0.18828  -0.13453  -0.07054
  43   39655.5    252.2   0.067553149   0.56081  -0.14740   0.50302   0.53485
  44   40252.4    248.4   0.016504804   0.13499   0.13611   0.04066   0.33883

FINAL SINGLE POINT ENERGY     -4291.582512046622

DIPOLE MOMENT
-------------
                                X             Y             Z
Electronic contribution:    -39.21707      -6.64499     -13.19768
Nuclear contribution   :     40.34175       5.72656      14.39511
                        -----------------------------------------
Total Dipole Moment    :      1.12468      -0.91844       1.19742
                        -----------------------------------------
Magnitude (a.u.)       :      1.88209
Magnitude (Debye)      :      4.78388

Rotational constants in cm-1:     0.001723     0.000261     0.000241
Rotational constants in MHz :    51.653676     7.837308     7.215421

                             ****ORCA TERMINATED NORMALLY****
TOTAL RUN TIME: 0 days 0 hours 11 minutes 23 seconds 27 msec
