                         Program Version 4.2.0 -  RELEASE  -
|  1> # ORCA input file
|  2> # SCF done       -157.445616430436          0.001967367127
|  3> ! CAM-B3LYP def2-SVP def2/J RIJCOSX Grid4 TightSCF
|  4> %maxcore 5000
|  5> %tddft
|  6>     Mode sTDDFT
|  7>     Ethresh 5.0
|  8>     maxcore 5000
|  9> end
| 10>
| 11> %pal
| 12>   nprocs 6
| 13>   end
| 14> * xyz 0 1
| 15>    C       -2.54567        -1.37448         2.49757
| 16>    C       -2.75539        -2.57253         1.85296
| 17>    C       -1.72295        -3.39378         1.36019
| 18>    N       -0.92546        -4.10390         0.93731
| 19>    C       -4.01061        -3.17120         1.62961
| 20>    N       -4.98964        -3.73840         1.42708
| 21>    C       -1.23664        -0.80431         2.81087
| 22>    C       -1.42700         0.36833         3.58198
| 23>    C       -0.38227         1.12956         4.04356
| 24>    C        0.91680         0.71675         3.72578
| 25>    C        1.09717        -0.45196         2.95052
| 26>    C        0.03858        -1.22420         2.48562
| 27>    S        2.78098        -0.77881         2.66926
| 28>    C        3.21284         0.63920         3.58743
| 29>    C        2.15333         1.32414         4.07867
| 30>   Br        5.02243         1.08203         3.81015
| 31>    C       -2.87569         0.59843         3.76902
| 32>    O       -3.38365         1.50822         4.39550
| 33>    C       -3.54799        -0.49082         3.03457
| 34>    C       -4.91292        -0.59029         2.85544
| 35>    C       -5.85868         0.26021         3.41924
| 36>    C       -7.21348         0.14132         3.17719
| 37>    C       -8.24541         0.92754         3.73905
| 38>    C       -9.49862         0.58857         3.32031
| 39>    C       -9.51560        -0.47821         2.39655
| 40>    S       -7.89040        -1.05059         2.08910
| 41>    C      -10.60941        -1.05298         1.77556
| 42>    C      -11.97785        -0.75164         1.96760
| 43>    C      -12.81427        -1.53007         1.23216
| 44>    C      -12.16017        -2.51181         0.43598
| 45>    S      -10.42206        -2.33149         0.60151
| 46>    C      -12.82741        -3.40224        -0.36190
| 47>    C      -12.38726        -4.48831        -1.14956
| 48>    S      -13.52013        -4.94359        -2.42157
| 49>    C      -12.44659        -6.12645        -3.03871
| 50>    C      -11.31451        -6.21755        -2.29969
| 51>    C      -11.27222        -5.31930        -1.20399
| 52>    S       -9.84892        -5.47710        -0.18169
| 53>    C      -10.31347        -5.13852         1.46606
| 54>    C      -11.56439        -5.08169         1.92237
| 55>    N      -11.88484        -4.65908         3.20282
| 56>    C      -13.04823        -4.01969         3.50527
| 57>    S      -13.01719        -2.70241         4.63726
| 58>    C      -14.68891        -2.37749         4.28795
| 59>    N      -15.28475        -1.30475         4.94434
| 60>    O      -16.45481        -1.06351         4.70073
| 61>    O      -14.57440        -0.66589         5.70775
| 62>    C      -15.22319        -3.24048         3.36551
| 63>    C      -14.30396        -4.20210         2.91778
| 64>    C      -14.60420        -5.28940         2.00980
| 65>    C      -15.46850        -5.20607         0.98492
| 66>    C      -15.72250        -6.24113         0.03166
| 67>    S      -17.12509        -6.09699        -0.99288
| 68>    C      -16.76315        -7.57433        -1.78220
| 69>    C      -15.63245        -8.15131        -1.30436
| 70>    C      -15.01886        -7.38870        -0.28290
| 71>    S      -13.51038        -7.85888         0.49990
| 72>    C      -12.65643        -8.69619        -0.79318
| 73>    C      -11.54118        -9.37116        -0.57643
| 74>    H       -0.55961         2.01680         4.63110
| 75>    H        0.22976        -2.10531         1.89627
| 76>    H        2.23799         2.22051         4.66571
| 77>    H       -5.28967        -1.38373         2.22082
| 78>    H       -5.52804         1.04825         4.08030
| 79>    H       -8.02821         1.71510         4.43831
| 80>    H      -10.39954         1.07502         3.64789
| 81>    H      -12.30188         0.01434         2.64838
| 82>    H      -13.88721        -1.45373         1.24700
| 83>    H      -13.89080        -3.20995        -0.44977
| 84>    H      -12.72128        -6.69157        -3.90729
| 85>    H      -10.51753        -6.91106        -2.49685
| 86>    H       -9.44827        -4.94782         2.08192
| 87>    H      -12.40458        -5.29277         1.28538
| 88>    H      -11.09217        -4.42870         3.78985
| 89>    H      -16.25197        -3.18976         3.05807
| 90>    H      -14.08444        -6.21478         2.20508
| 91>    H      -16.02784        -4.29330         0.82709
| 92>    H      -17.41589        -7.94088        -2.54907
| 93>    H      -15.25840        -9.09695        -1.65337
| 94>    H      -13.09082        -8.57245        -1.77144
| 95>    H      -11.11638        -9.46655         0.40722
| 96>    H      -11.01596        -9.84642        -1.38619
| 97> *
| 98>
| 99>                          ****END OF INPUT****

CARTESIAN COORDINATES (ANGSTROEM)
---------------------------------
  C     -2.545670   -1.374480    2.497570
  C     -2.755390   -2.572530    1.852960
  C     -1.722950   -3.393780    1.360190
  N     -0.925460   -4.103900    0.937310
  C     -4.010610   -3.171200    1.629610
  N     -4.989640   -3.738400    1.427080
  C     -1.236640   -0.804310    2.810870
  C     -1.427000    0.368330    3.581980
  C     -0.382270    1.129560    4.043560
  C      0.916800    0.716750    3.725780
  C      1.097170   -0.451960    2.950520
  C      0.038580   -1.224200    2.485620
  S      2.780980   -0.778810    2.669260
  C      3.212840    0.639200    3.587430
  C      2.153330    1.324140    4.078670
  Br     5.022430    1.082030    3.810150
  C     -2.875690    0.598430    3.769020
  O     -3.383650    1.508220    4.395500
  C     -3.547990   -0.490820    3.034570
  C     -4.912920   -0.590290    2.855440
  C     -5.858680    0.260210    3.419240
  C     -7.213480    0.141320    3.177190
  C     -8.245410    0.927540    3.739050
  C     -9.498620    0.588570    3.320310
  C     -9.515600   -0.478210    2.396550
  S     -7.890400   -1.050590    2.089100
  C    -10.609410   -1.052980    1.775560
  C    -11.977850   -0.751640    1.967600
  C    -12.814270   -1.530070    1.232160
  C    -12.160170   -2.511810    0.435980
  S    -10.422060   -2.331490    0.601510
  C    -12.827410   -3.402240   -0.361900
  C    -12.387260   -4.488310   -1.149560
  S    -13.520130   -4.943590   -2.421570
  C    -12.446590   -6.126450   -3.038710
  C    -11.314510   -6.217550   -2.299690
  C    -11.272220   -5.319300   -1.203990
  S     -9.848920   -5.477100   -0.181690
  C    -10.313470   -5.138520    1.466060
  C    -11.564390   -5.081690    1.922370
  N    -11.884840   -4.659080    3.202820
  C    -13.048230   -4.019690    3.505270
  S    -13.017190   -2.702410    4.637260
  C    -14.688910   -2.377490    4.287950
  N    -15.284750   -1.304750    4.944340
  O    -16.454810   -1.063510    4.700730
  O    -14.574400   -0.665890    5.707750
  C    -15.223190   -3.240480    3.365510
  C    -14.303960   -4.202100    2.917780
  C    -14.604200   -5.289400    2.009800
  C    -15.468500   -5.206070    0.984920
  C    -15.722500   -6.241130    0.031660
  S    -17.125090   -6.096990   -0.992880
  C    -16.763150   -7.574330   -1.782200
  C    -15.632450   -8.151310   -1.304360
  C    -15.018860   -7.388700   -0.282900
  S    -13.510380   -7.858880    0.499900
  C    -12.656430   -8.696190   -0.793180
  C    -11.541180   -9.371160   -0.576430
  H     -0.559610    2.016800    4.631100
  H      0.229760   -2.105310    1.896270
  H      2.237990    2.220510    4.665710
  H     -5.289670   -1.383730    2.220820
  H     -5.528040    1.048250    4.080300
  H     -8.028210    1.715100    4.438310
  H    -10.399540    1.075020    3.647890
  H    -12.301880    0.014340    2.648380
  H    -13.887210   -1.453730    1.247000
  H    -13.890800   -3.209950   -0.449770
  H    -12.721280   -6.691570   -3.907290
  H    -10.517530   -6.911060   -2.496850
  H     -9.448270   -4.947820    2.081920
  H    -12.404580   -5.292770    1.285380
  H    -11.092170   -4.428700    3.789850
  H    -16.251970   -3.189760    3.058070
  H    -14.084440   -6.214780    2.205080
  H    -16.027840   -4.293300    0.827090
  H    -17.415890   -7.940880   -2.549070
  H    -15.258400   -9.096950   -1.653370
  H    -13.090820   -8.572450   -1.771440
  H    -11.116380   -9.466550    0.407220
  H    -11.015960   -9.846420   -1.386190

 Total Charge           Charge          ....    0
 Multiplicity           Mult            ....    1
 Number of Electrons    NEL             ....  496
 Basis Dimension        Dim             ....  991

ORBITAL ENERGIES
----------------

  NO   OCC          E(Eh)            E(eV)
   0   2.0000    -482.877045    -13139.7524
   1   2.0000     -88.983334     -2421.3596
   2   2.0000     -88.967865     -2420.9387
   3   2.0000     -88.966052     -2420.8894
   4   2.0000     -88.964746     -2420.8538
   5   2.0000     -88.963234     -2420.8127
   6   2.0000     -88.959027     -2420.6982
   7   2.0000     -88.949331     -2420.4344
   8   2.0000     -88.949287     -2420.4332
   9   2.0000     -62.554744     -1702.2011
  10   2.0000     -56.388683     -1534.4141
  11   2.0000     -56.385988     -1534.3407
  12   2.0000     -56.385953     -1534.3398
  13   2.0000     -19.235123      -523.4143
  14   2.0000     -19.234726      -523.4035
  15   2.0000     -19.199740      -522.4515
  16   2.0000     -14.647023      -398.5658
  17   2.0000     -14.475821      -393.9071
  18   2.0000     -14.401365      -391.8811
  19   2.0000     -14.398486      -391.8027
  20   2.0000     -10.368233      -282.1340
  21   2.0000     -10.350037      -281.6388
  22   2.0000     -10.348358      -281.5931
  23   2.0000     -10.340372      -281.3758
  24   2.0000     -10.334219      -281.2084
  25   2.0000     -10.326318      -280.9934
  26   2.0000     -10.325283      -280.9652
  27   2.0000     -10.323944      -280.9288
  28   2.0000     -10.322008      -280.8761
  29   2.0000     -10.321917      -280.8737
  30   2.0000     -10.321005      -280.8488
  31   2.0000     -10.320263      -280.8286
  32   2.0000     -10.318018      -280.7676
  33   2.0000     -10.313079      -280.6331
  34   2.0000     -10.312517      -280.6179
  35   2.0000     -10.312371      -280.6139
  36   2.0000     -10.311920      -280.6016
  37   2.0000     -10.311169      -280.5812
  38   2.0000     -10.310773      -280.5704
  39   2.0000     -10.306721      -280.4601
  40   2.0000     -10.305732      -280.4332
  41   2.0000     -10.305550      -280.4283
  42   2.0000     -10.304829      -280.4087
  43   2.0000     -10.304618      -280.4029
  44   2.0000     -10.302880      -280.3556
  45   2.0000     -10.300154      -280.2814
  46   2.0000     -10.299174      -280.2548
  47   2.0000     -10.298307      -280.2312
  48   2.0000     -10.297675      -280.2140
  49   2.0000     -10.297294      -280.2036
  50   2.0000     -10.294935      -280.1394
  51   2.0000     -10.293728      -280.1066
  52   2.0000     -10.292940      -280.0851
  53   2.0000     -10.291768      -280.0533
  54   2.0000     -10.291284      -280.0401
  55   2.0000     -10.289164      -279.9824
  56   2.0000     -10.288037      -279.9517
  57   2.0000     -10.287679      -279.9420
  58   2.0000     -10.286627      -279.9133
  59   2.0000     -10.277671      -279.6696
  60   2.0000     -10.275836      -279.6197
  61   2.0000     -10.273891      -279.5668
  62   2.0000     -10.272583      -279.5312
  63   2.0000      -8.784157      -239.0291
  64   2.0000      -8.078704      -219.8327
  65   2.0000      -8.063313      -219.4139
  66   2.0000      -8.062078      -219.3803
  67   2.0000      -8.060731      -219.3437
  68   2.0000      -8.058551      -219.2843
  69   2.0000      -8.054985      -219.1873
  70   2.0000      -8.044022      -218.8890
  71   2.0000      -8.043757      -218.8818
  72   2.0000      -6.620406      -180.1504
  73   2.0000      -6.605914      -179.7561
  74   2.0000      -6.605727      -179.7510
  75   2.0000      -6.048388      -164.5850
  76   2.0000      -6.044097      -164.4683
  77   2.0000      -6.040058      -164.3583
  78   2.0000      -6.032729      -164.1589
  79   2.0000      -6.031361      -164.1217
  80   2.0000      -6.030416      -164.0960
  81   2.0000      -6.028425      -164.0418
  82   2.0000      -6.028303      -164.0385
  83   2.0000      -6.027145      -164.0069
  84   2.0000      -6.026168      -163.9804
  85   2.0000      -6.025342      -163.9579
  86   2.0000      -6.024571      -163.9369
  87   2.0000      -6.024258      -163.9284
  88   2.0000      -6.024144      -163.9253
  89   2.0000      -6.021950      -163.8656
  90   2.0000      -6.020569      -163.8280
  91   2.0000      -6.019565      -163.8007
  92   2.0000      -6.016184      -163.7087
  93   2.0000      -6.014500      -163.6629
  94   2.0000      -6.014078      -163.6514
  95   2.0000      -6.009945      -163.5389
  96   2.0000      -6.009726      -163.5330
  97   2.0000      -6.004138      -163.3809
  98   2.0000      -6.004123      -163.3805
  99   2.0000      -2.736291       -74.4583
 100   2.0000      -2.732205       -74.3471
 101   2.0000      -2.732095       -74.3441
 102   2.0000      -2.720561       -74.0302
 103   2.0000      -2.720547       -74.0298
 104   2.0000      -1.314985       -35.7826
 105   2.0000      -1.133839       -30.8533
 106   2.0000      -1.113180       -30.2912
 107   2.0000      -1.082196       -29.4481
 108   2.0000      -1.012484       -27.5511
 109   2.0000      -1.009373       -27.4664
 110   2.0000      -1.002780       -27.2870
 111   2.0000      -1.001501       -27.2522
 112   2.0000      -0.999323       -27.1930
 113   2.0000      -0.998039       -27.1580
 114   2.0000      -0.986880       -26.8544
 115   2.0000      -0.979335       -26.6491
 116   2.0000      -0.974476       -26.5168
 117   2.0000      -0.930661       -25.3246
 118   2.0000      -0.924560       -25.1586
 119   2.0000      -0.921757       -25.0823
 120   2.0000      -0.919776       -25.0284
 121   2.0000      -0.912992       -24.8438
 122   2.0000      -0.897625       -24.4256
 123   2.0000      -0.894540       -24.3417
 124   2.0000      -0.889074       -24.1929
 125   2.0000      -0.873283       -23.7632
 126   2.0000      -0.871029       -23.7019
 127   2.0000      -0.865476       -23.5508
 128   2.0000      -0.862012       -23.4565
 129   2.0000      -0.852039       -23.1852
 130   2.0000      -0.847426       -23.0596
 131   2.0000      -0.844322       -22.9752
 132   2.0000      -0.837158       -22.7802
 133   2.0000      -0.820734       -22.3333
 134   2.0000      -0.816373       -22.2146
 135   2.0000      -0.815723       -22.1969
 136   2.0000      -0.798521       -21.7289
 137   2.0000      -0.786836       -21.4109
 138   2.0000      -0.783912       -21.3313
 139   2.0000      -0.766517       -20.8580
 140   2.0000      -0.757907       -20.6237
 141   2.0000      -0.743805       -20.2400
 142   2.0000      -0.727276       -19.7902
 143   2.0000      -0.712232       -19.3808
 144   2.0000      -0.707864       -19.2620
 145   2.0000      -0.700478       -19.0610
 146   2.0000      -0.683600       -18.6017
 147   2.0000      -0.681207       -18.5366
 148   2.0000      -0.677171       -18.4268
 149   2.0000      -0.671745       -18.2791
 150   2.0000      -0.668939       -18.2028
 151   2.0000      -0.661743       -18.0069
 152   2.0000      -0.655708       -17.8427
 153   2.0000      -0.647290       -17.6136
 154   2.0000      -0.644787       -17.5455
 155   2.0000      -0.641794       -17.4641
 156   2.0000      -0.633107       -17.2277
 157   2.0000      -0.630885       -17.1672
 158   2.0000      -0.628589       -17.1048
 159   2.0000      -0.627954       -17.0875
 160   2.0000      -0.618860       -16.8400
 161   2.0000      -0.617526       -16.8037
 162   2.0000      -0.612902       -16.6779
 163   2.0000      -0.609963       -16.5979
 164   2.0000      -0.602295       -16.3893
 165   2.0000      -0.594055       -16.1651
 166   2.0000      -0.587032       -15.9740
 167   2.0000      -0.586645       -15.9634
 168   2.0000      -0.581198       -15.8152
 169   2.0000      -0.580927       -15.8078
 170   2.0000      -0.569035       -15.4842
 171   2.0000      -0.561730       -15.2855
 172   2.0000      -0.548945       -14.9376
 173   2.0000      -0.545930       -14.8555
 174   2.0000      -0.542492       -14.7620
 175   2.0000      -0.539888       -14.6911
 176   2.0000      -0.536551       -14.6003
 177   2.0000      -0.532636       -14.4938
 178   2.0000      -0.527973       -14.3669
 179   2.0000      -0.525154       -14.2902
 180   2.0000      -0.522584       -14.2202
 181   2.0000      -0.519910       -14.1475
 182   2.0000      -0.518019       -14.0960
 183   2.0000      -0.516516       -14.0551
 184   2.0000      -0.511267       -13.9123
 185   2.0000      -0.508923       -13.8485
 186   2.0000      -0.505714       -13.7612
 187   2.0000      -0.504490       -13.7279
 188   2.0000      -0.498486       -13.5645
 189   2.0000      -0.496471       -13.5097
 190   2.0000      -0.494008       -13.4426
 191   2.0000      -0.493593       -13.4313
 192   2.0000      -0.489365       -13.3163
 193   2.0000      -0.483011       -13.1434
 194   2.0000      -0.481258       -13.0957
 195   2.0000      -0.480224       -13.0675
 196   2.0000      -0.478189       -13.0122
 197   2.0000      -0.476824       -12.9750
 198   2.0000      -0.474591       -12.9143
 199   2.0000      -0.471375       -12.8268
 200   2.0000      -0.467935       -12.7331
 201   2.0000      -0.464684       -12.6447
 202   2.0000      -0.458995       -12.4899
 203   2.0000      -0.458872       -12.4865
 204   2.0000      -0.456804       -12.4303
 205   2.0000      -0.450495       -12.2586
 206   2.0000      -0.447203       -12.1690
 207   2.0000      -0.446292       -12.1442
 208   2.0000      -0.441971       -12.0267
 209   2.0000      -0.438168       -11.9232
 210   2.0000      -0.435506       -11.8507
 211   2.0000      -0.434910       -11.8345
 212   2.0000      -0.431141       -11.7319
 213   2.0000      -0.429799       -11.6954
 214   2.0000      -0.426938       -11.6176
 215   2.0000      -0.420437       -11.4407
 216   2.0000      -0.415476       -11.3057
 217   2.0000      -0.412931       -11.2364
 218   2.0000      -0.410587       -11.1726
 219   2.0000      -0.409126       -11.1329
 220   2.0000      -0.408512       -11.1162
 221   2.0000      -0.403901       -10.9907
 222   2.0000      -0.402073       -10.9410
 223   2.0000      -0.396218       -10.7816
 224   2.0000      -0.393666       -10.7122
 225   2.0000      -0.391426       -10.6512
 226   2.0000      -0.383596       -10.4382
 227   2.0000      -0.380200       -10.3458
 228   2.0000      -0.376520       -10.2456
 229   2.0000      -0.372844       -10.1456
 230   2.0000      -0.366585        -9.9753
 231   2.0000      -0.363746        -9.8980
 232   2.0000      -0.359645        -9.7864
 233   2.0000      -0.353387        -9.6162
 234   2.0000      -0.347685        -9.4610
 235   2.0000      -0.346396        -9.4259
 236   2.0000      -0.339882        -9.2487
 237   2.0000      -0.328994        -8.9524
 238   2.0000      -0.326031        -8.8718
 239   2.0000      -0.319902        -8.7050
 240   2.0000      -0.313745        -8.5374
 241   2.0000      -0.303326        -8.2539
 242   2.0000      -0.294306        -8.0085
 243   2.0000      -0.290737        -7.9113
 244   2.0000      -0.281039        -7.6474
 245   2.0000      -0.267925        -7.2906
 246   2.0000      -0.256061        -6.9678
 247   2.0000      -0.225893        -6.1469
 248   0.0000      -0.107342        -2.9209
 249   0.0000      -0.059313        -1.6140
 250   0.0000      -0.054210        -1.4751
 251   0.0000      -0.040276        -1.0960
 252   0.0000      -0.033196        -0.9033

MULLIKEN ATOMIC CHARGES
-----------------------
   0 C :    0.324507
   1 C :   -0.363028
   2 C :   -0.188119
   3 N :    0.135910
   4 C :   -0.193381
   5 N :    0.128185
   6 C :    0.011212
   7 C :   -0.007928
   8 C :   -0.076568
   9 C :    0.116020
  10 C :   -0.092836
  11 C :   -0.023405
  12 S :    0.178874
  13 C :   -0.124707
  14 C :    0.039654
  15 Br:    0.014490
  16 C :    0.137264
  17 O :   -0.165310
  18 C :   -0.090065
  19 C :   -0.042617
  20 C :   -0.028309
  21 C :    0.007955
  22 C :    0.023000
  23 C :    0.043831
  24 C :   -0.058097
  25 S :    0.099692
  26 C :   -0.058055
  27 C :    0.032645
  28 C :    0.051588
  29 C :   -0.046352
  30 S :    0.143313
  31 C :    0.008868
  32 C :   -0.174146
  33 S :    0.123971
  34 C :   -0.059984
  35 C :    0.056049
  36 C :   -0.031029
  37 S :    0.096903
  38 C :   -0.144142
  39 C :    0.102677
  40 N :   -0.036827
  41 C :   -0.091721
  42 S :    0.160660
  43 C :   -0.031767
  44 N :    0.281037
  45 O :   -0.258728
  46 O :   -0.277972
  47 C :    0.001691
  48 C :    0.054094
  49 C :   -0.038794
  50 C :    0.024596
  51 C :   -0.150599
  52 S :    0.122500
  53 C :   -0.060825
  54 C :    0.011061
  55 C :   -0.010592
  56 S :    0.036473
  57 C :   -0.065403
  58 C :   -0.014829
  59 H :   -0.015655
  60 H :   -0.009340
  61 H :   -0.006674
  62 H :    0.017369
  63 H :    0.017582
  64 H :    0.001011
  65 H :    0.000875
  66 H :   -0.002082
  67 H :   -0.000563
  68 H :   -0.001082
  69 H :    0.037576
  70 H :   -0.002057
  71 H :    0.039572
  72 H :    0.062872
  73 H :    0.126934
  74 H :    0.008004
  75 H :    0.038061
  76 H :   -0.012017
  77 H :    0.033577
  78 H :   -0.000340
  79 H :    0.038671
  80 H :    0.030433
  81 H :    0.034685
Sum of atomic charges:    0.0000000

LOEWDIN ATOMIC CHARGES
----------------------
   0 C :    0.073892
   1 C :   -0.158262
   2 C :   -0.019319
   3 N :   -0.069492
   4 C :   -0.020114
   5 N :   -0.072225
   6 C :   -0.018256
   7 C :   -0.048426
   8 C :    0.017254
   9 C :   -0.035944
  10 C :   -0.145976
  11 C :   -0.013625
  12 S :    0.427094
  13 C :   -0.274881
  14 C :   -0.070861
  15 Br:    0.129764
  16 C :    0.081794
  17 O :   -0.158121
  18 C :   -0.109524
  19 C :    0.049127
  20 C :   -0.075551
  21 C :   -0.102554
  22 C :   -0.043498
  23 C :   -0.005388
  24 C :   -0.198242
  25 S :    0.402706
  26 C :   -0.154091
  27 C :   -0.045093
  28 C :   -0.010133
  29 C :   -0.160311
  30 S :    0.435102
  31 C :   -0.052098
  32 C :   -0.197261
  33 S :    0.453040
  34 C :   -0.174713
  35 C :   -0.064936
  36 C :   -0.194842
  37 S :    0.380197
  38 C :   -0.235590
  39 C :   -0.012233
  40 N :    0.024676
  41 C :   -0.095084
  42 S :    0.451144
  43 C :   -0.221487
  44 N :    0.273357
  45 O :   -0.225166
  46 O :   -0.244036
  47 C :    0.001156
  48 C :   -0.111647
  49 C :   -0.030249
  50 C :   -0.049248
  51 C :   -0.201606
  52 S :    0.439077
  53 C :   -0.178122
  54 C :   -0.080856
  55 C :   -0.195979
  56 S :    0.367348
  57 C :   -0.150082
  58 C :   -0.075736
  59 H :    0.038799
  60 H :    0.039990
  61 H :    0.037495
  62 H :    0.031147
  63 H :    0.038931
  64 H :    0.039229
  65 H :    0.037802
  66 H :    0.034684
  67 H :    0.036069
  68 H :    0.035342
  69 H :    0.027046
  70 H :    0.031350
  71 H :    0.026199
  72 H :    0.024035
  73 H :    0.089218
  74 H :    0.044213
  75 H :    0.021090
  76 H :    0.023766
  77 H :    0.026609
  78 H :    0.032158
  79 H :    0.021523
  80 H :    0.026742
  81 H :    0.030693

  Mayer bond orders larger than 0.100000
B(  0-C ,  1-C ) :   1.5827 B(  0-C ,  6-C ) :   0.9905 B(  0-C , 18-C ) :   1.1126
B(  1-C ,  2-C ) :   1.1475 B(  1-C ,  4-C ) :   1.1551 B(  2-C ,  3-N ) :   2.9644
B(  4-C ,  5-N ) :   2.9659 B(  6-C ,  7-C ) :   1.2788 B(  6-C , 11-C ) :   1.4204
B(  7-C ,  8-C ) :   1.4315 B(  7-C , 16-C ) :   0.9348 B(  8-C ,  9-C ) :   1.2386
B(  8-C , 59-H ) :   1.0162 B(  9-C , 10-C ) :   1.3167 B(  9-C , 14-C ) :   1.1615
B( 10-C , 11-C ) :   1.3199 B( 10-C , 12-S ) :   1.0827 B( 11-C , 60-H ) :   0.9793
B( 12-S , 13-C ) :   1.0859 B( 13-C , 14-C ) :   1.6195 B( 13-C , 15-Br) :   1.0133
B( 14-C , 61-H ) :   1.0000 B( 16-C , 17-O ) :   2.1868 B( 16-C , 18-C ) :   0.9684
B( 18-C , 19-C ) :   1.4763 B( 19-C , 20-C ) :   1.2621 B( 19-C , 62-H ) :   0.9447
B( 20-C , 21-C ) :   1.4169 B( 20-C , 63-H ) :   0.9784 B( 21-C , 22-C ) :   1.1789
B( 21-C , 25-S ) :   1.0818 B( 22-C , 23-C ) :   1.5375 B( 22-C , 64-H ) :   1.0031
B( 23-C , 24-C ) :   1.2154 B( 23-C , 65-H ) :   0.9968 B( 24-C , 25-S ) :   1.0414
B( 24-C , 26-C ) :   1.4649 B( 26-C , 27-C ) :   1.1810 B( 26-C , 30-S ) :   1.0828
B( 27-C , 28-C ) :   1.5905 B( 27-C , 66-H ) :   0.9936 B( 28-C , 29-C ) :   1.1194
B( 28-C , 67-H ) :   1.0002 B( 29-C , 30-S ) :   1.0352 B( 29-C , 31-C ) :   1.6287
B( 31-C , 32-C ) :   1.1624 B( 31-C , 68-H ) :   0.9329 B( 32-C , 33-S ) :   1.1275
B( 32-C , 36-C ) :   1.4510 B( 33-S , 34-C ) :   1.1680 B( 34-C , 35-C ) :   1.5735
B( 34-C , 69-H ) :   0.9703 B( 35-C , 36-C ) :   1.2538 B( 35-C , 70-H ) :   0.9900
B( 36-C , 37-S ) :   1.0278 B( 37-S , 38-C ) :   1.0328 B( 38-C , 39-C ) :   1.7834
B( 38-C , 71-H ) :   0.9502 B( 39-C , 40-N ) :   1.0946 B( 39-C , 72-H ) :   0.9283
B( 40-N , 41-C ) :   1.2206 B( 40-N , 73-H ) :   0.9152 B( 41-C , 42-S ) :   1.1387
B( 41-C , 48-C ) :   1.3775 B( 42-S , 43-C ) :   1.0819 B( 43-C , 44-N ) :   0.9865
B( 43-C , 47-C ) :   1.4529 B( 44-N , 45-O ) :   1.5258 B( 44-N , 46-O ) :   1.4980
B( 45-O , 46-O ) :   0.2497 B( 47-C , 48-C ) :   1.2600 B( 47-C , 74-H ) :   1.0075
B( 48-C , 49-C ) :   1.0563 B( 49-C , 50-C ) :   1.7484 B( 49-C , 75-H ) :   0.9480
B( 50-C , 51-C ) :   1.1229 B( 50-C , 76-H ) :   0.9497 B( 51-C , 52-S ) :   1.1290
B( 51-C , 55-C ) :   1.5282 B( 52-S , 53-C ) :   1.1664 B( 53-C , 54-C ) :   1.5798
B( 53-C , 77-H ) :   0.9700 B( 54-C , 55-C ) :   1.2455 B( 54-C , 78-H ) :   0.9917
B( 55-C , 56-S ) :   1.0141 B( 56-S , 57-C ) :   1.0248 B( 57-C , 58-C ) :   1.9788
B( 57-C , 79-H ) :   0.9380 B( 58-C , 80-H ) :   0.9571 B( 58-C , 81-H ) :   0.9583

-----------------------------------------------------------------------------
         ABSORPTION SPECTRUM VIA TRANSITION ELECTRIC DIPOLE MOMENTS
-----------------------------------------------------------------------------
State   Energy  Wavelength   fosc         T2         TX        TY        TZ
        (cm-1)    (nm)                  (au**2)     (au)      (au)      (au)
-----------------------------------------------------------------------------
   0   11278.0    886.7   0.961523205  28.06749  -4.85908  -1.61915  -1.35470
   1   16441.0    608.2   0.266649470   5.33936  -2.07143   0.04479  -1.02299
   2   20275.8    493.2   0.073971995   1.20106  -1.07633   0.20608   0.01010
   3   21411.6    467.0   0.061620257   0.94743  -0.19165  -0.83185  -0.46769
   4   22599.7    442.5   0.088726885   1.29249   0.23373  -0.80458  -0.76845
   5   23893.5    418.5   0.084226061   1.16049   0.30934   0.81892   0.62783
   6   24871.6    402.1   0.286448054   3.79156   0.56298   1.57371   0.99902
   7   26215.6    381.5   0.138641567   1.74104   1.24551  -0.39554  -0.18248
   8   26615.4    375.7   0.040416373   0.49992  -0.58994   0.32676   0.21242
   9   26830.8    372.7   0.317467432   3.89530   0.74251  -1.44112  -1.12568
  10   26999.1    370.4   0.007397703   0.09020   0.08674  -0.24515  -0.15027
  11   27359.3    365.5   0.417839298   5.02783   1.80626  -1.04833  -0.81625
  12   28617.9    349.4   0.003420900   0.03935   0.12537   0.11106   0.10631
  13   28804.1    347.2   0.020553243   0.23491  -0.07948  -0.22513  -0.42179
  14   28877.3    346.3   0.012697693   0.14476  -0.03272  -0.34134  -0.16486
  15   30234.1    330.8   0.161597336   1.75960  -0.71564  -0.86048  -0.71206
  16   30414.1    328.8   0.007720778   0.08357  -0.24381   0.04576   0.14844
  17   30804.1    324.6   0.258594969   2.76368  -0.66718  -1.01508  -1.13497
  18   31602.6    316.4   0.129276531   1.34671   1.15391  -0.10458  -0.06522
  19   31806.9    314.4   0.032820959   0.33971  -0.55011  -0.18767  -0.04324
  20   32128.2    311.3   0.137570596   1.40966  -0.85827  -0.72741  -0.37935
  21   32560.2    307.1   0.323668866   3.27258  -1.35514  -1.09649  -0.48361
  22   32675.4    306.0   0.229991344   2.31721  -1.21781   0.72273   0.55841
  23   33325.9    300.1   0.113696681   1.12316  -0.30191   0.87185   0.52143
  24   33544.1    298.1   0.012733819   0.12497  -0.15704   0.25097   0.19320
  25   34184.2    292.5   0.005732901   0.05521   0.06155  -0.21945  -0.05713
  26   34936.0    286.2   0.091842876   0.86546  -0.20694  -0.73418  -0.53256
  27   35233.1    283.8   0.005407409   0.05053  -0.06315  -0.13544  -0.16791
  28   35675.8    280.3   0.021708410   0.20032   0.17690   0.38112   0.15419
  29   36200.2    276.2   0.115946975   1.05444   0.36109  -0.82727  -0.48958
  30   36455.0    274.3   0.048492289   0.43792   0.12458  -0.55800  -0.33321
  31   36884.4    271.1   0.006742929   0.06018  -0.12111   0.20283  -0.06615
  32   37047.9    269.9   0.014787994   0.13141   0.10541  -0.27939  -0.20552
  33   37489.0    266.7   0.150576311   1.32229  -0.97982  -0.41249  -0.43830
  34   37855.0    264.2   0.025599303   0.22263  -0.45190   0.11391  -0.07377
  35   37958.1    263.4   0.204729705   1.77563  -0.96744  -0.10935  -0.90980
  36   38306.6    261.1   0.230486592   1.98083   0.12032   1.06707   0.90979
  37   39049.5    256.1   0.018406976   0.15518   0.17067  -0.32808  -0.13572
  38   39120.3    255.6   0.014972540   0.12600   0.21168   0.18659   0.21535
  39   39229.6    254.9   0.006187855   0.05193  -0.12093   0.17656  -0.07830
  40   39783.0    251.4   0.038038286   0.31477   0.03261   0.02410  -0.55958
  41   39900.7    250.6   0.056719958   0.46798   0.35504  -0.02289   0.58430
  42   40136.3    249.2   0.012119582   0.09941  -0.26098   0.12602   0.12418

FINAL SINGLE POINT ENERGY     -7852.715745109920

DIPOLE MOMENT
-------------
                                X             Y             Z
Electronic contribution:    168.39654      57.00770      29.22043
Nuclear contribution   :   -170.88478     -57.93650     -30.70343
                        -----------------------------------------
Total Dipole Moment    :     -2.48824      -0.92880      -1.48300
                        -----------------------------------------
Magnitude (a.u.)       :      3.04192
Magnitude (Debye)      :      7.73195

Rotational constants in cm-1:     0.002292     0.000323     0.000294
Rotational constants in MHz :    68.716215     9.675732     8.820461

                             ****ORCA TERMINATED NORMALLY****
TOTAL RUN TIME: 0 days 0 hours 8 minutes 17 seconds 208 msec
