                         Program Version 4.2.0 -  RELEASE  -
|  1> # ORCA input file
|  2> # SCF done       -184.143921363749          0.000978860305
|  3> ! CAM-B3LYP def2-SVP def2/J RIJCOSX Grid4 TightSCF
|  4> %maxcore 5000
|  5> %tddft
|  6>     Mode sTDDFT
|  7>     Ethresh 5.0
|  8>     maxcore 5000
|  9> end
| 10>
| 11> %pal
| 12>   nprocs 6
| 13>   end
| 14> * xyz 0 1
| 15>    C       -3.05384         5.56346         9.15948
| 16>    C       -1.88401         6.22404         9.44038
| 17>    C       -1.81780         7.58634         9.80011
| 18>    N       -1.69680         8.68778        10.10078
| 19>    C       -0.58644         5.67565         9.36787
| 20>    N        0.50495         5.32188         9.30454
| 21>    C       -4.37227         6.18209         9.11151
| 22>    C       -5.29879         5.21776         8.64435
| 23>    C       -6.63570         5.48858         8.47779
| 24>    C       -7.08223         6.77642         8.79168
| 25>    C       -6.15102         7.73359         9.26106
| 26>    C       -4.79794         7.45836         9.42595
| 27>    S       -6.91464         9.25646         9.59538
| 28>    C       -8.45381         8.59798         9.10630
| 29>    C       -8.39984         7.30301         8.71211
| 30>   Br       -9.98398         9.68082         9.15974
| 31>    C       -4.59791         3.95141         8.40443
| 32>    O       -5.13636         2.91532         8.02037
| 33>    C       -3.20065         4.16787         8.77352
| 34>    C       -2.18822         3.24584         8.92406
| 35>    C       -1.98788         1.91114         8.54340
| 36>    O       -0.89008         1.32848         9.13795
| 37>    C       -0.72121         0.12458         8.64969
| 38>    C       -1.68284        -0.16880         7.70456
| 39>    N       -1.82374        -1.45759         7.14500
| 40>    O       -0.88090        -2.21420         7.26740
| 41>    O       -2.88011        -1.75822         6.61487
| 42>    C       -2.52162         0.99686         7.60019
| 43>    N       -3.52692         1.24017         6.75176
| 44>    C       -3.75853         0.58418         5.56584
| 45>    C       -4.91218         0.59319         4.88754
| 46>    C       -6.18266         1.24247         5.33336
| 47>    C       -5.00216        -0.17476         3.59007
| 48>    N       -5.77398        -1.38913         3.75871
| 49>    C       -5.40793        -2.37723         4.58379
| 50>    C       -6.15839        -3.49580         4.81239
| 51>    C       -5.73742        -4.52484         5.66023
| 52>    C       -6.46091        -5.66753         5.91166
| 53>    C       -6.10210        -6.75605         6.73380
| 54>    C       -7.03067        -7.75695         6.77677
| 55>    C       -8.17503        -7.50487         5.99330
| 56>    S       -8.04155        -5.96596         5.19379
| 57>    C       -9.29672        -8.30897         5.82834
| 58>    C       -9.54661        -9.58087         6.36848
| 59>    C      -10.76045       -10.10214         6.00749
| 60>    C      -11.52011        -9.26353         5.17064
| 61>    S      -10.65068        -7.78631         4.84969
| 62>    C      -12.79023        -9.51565         4.67035
| 63>    C      -13.46934        -8.63531         3.84710
| 64>    C      -14.74485        -8.75335         3.32092
| 65>    C      -15.10520        -7.94866         2.13774
| 66>    O      -14.47005        -7.03306         1.65269
| 67>    C      -16.37692        -8.51853         1.64464
| 68>    C      -17.09349        -8.19183         0.53198
| 69>    C      -18.27711        -8.90800         0.23862
| 70>    C      -18.68872        -9.95681         1.10963
| 71>    C      -19.86283       -10.67304         0.80814
| 72>    C      -20.58185       -10.34491        -0.30731
| 73>    C      -20.19582        -9.31539        -1.17442
| 74>    C      -19.05640        -8.61145        -0.89713
| 75>    F      -21.70705       -11.02952        -0.59676
| 76>    C      -17.92830       -10.26636         2.26338
| 77>    C      -16.79309        -9.55297         2.53039
| 78>    C      -15.83969        -9.61843         3.64198
| 79>    C      -16.08753       -10.24739         4.84428
| 80>    C      -15.33359       -10.05538         6.01647
| 81>    N      -14.79439        -9.90268         7.02027
| 82>    C      -17.20101       -11.07278         5.08399
| 83>    N      -18.07460       -11.77743         5.33360
| 84>    H       -7.31665         4.73214         8.12023
| 85>    H       -4.13161         8.22137         9.79119
| 86>    H       -9.25403         6.74140         8.38065
| 87>    H       -1.32795         3.59830         9.48276
| 88>    H        0.07883        -0.48619         9.02364
| 89>    H       -4.23185         1.91145         7.09926
| 90>    H       -2.90045         0.07664         5.14880
| 91>    H       -6.09468         1.70581         6.31012
| 92>    H       -6.97964         0.49984         5.37935
| 93>    H       -6.48285         2.00485         4.61302
| 94>    H       -3.99853        -0.43615         3.23959
| 95>    H       -5.49128         0.43054         2.82420
| 96>    H       -6.68232        -1.44763         3.32358
| 97>    H       -4.45821        -2.24813         5.08404
| 98>    H       -7.11538        -3.60678         4.31827
| 99>    H       -4.77930        -4.41831         6.15101
|100>    H       -5.16844        -6.77058         7.26810
|101>    H       -6.92266        -8.65906         7.35117
|102>    H       -8.83810       -10.08464         7.00132
|103>    H      -11.13161       -11.05886         6.32855
|104>    H      -13.23268       -10.46262         4.94135
|105>    H      -12.91849        -7.77104         3.48519
|106>    H      -16.76294        -7.39700        -0.12007
|107>    H      -20.19233       -11.47062         1.45569
|108>    H      -20.80325        -9.10043        -2.03933
|109>    H      -18.73740        -7.81314        -1.55064
|110>    H      -18.26480       -11.06754         2.90191
|111> *
|112>
|113>                          ****END OF INPUT****

CARTESIAN COORDINATES (ANGSTROEM)
---------------------------------
  C     -3.053840    5.563460    9.159480
  C     -1.884010    6.224040    9.440380
  C     -1.817800    7.586340    9.800110
  N     -1.696800    8.687780   10.100780
  C     -0.586440    5.675650    9.367870
  N      0.504950    5.321880    9.304540
  C     -4.372270    6.182090    9.111510
  C     -5.298790    5.217760    8.644350
  C     -6.635700    5.488580    8.477790
  C     -7.082230    6.776420    8.791680
  C     -6.151020    7.733590    9.261060
  C     -4.797940    7.458360    9.425950
  S     -6.914640    9.256460    9.595380
  C     -8.453810    8.597980    9.106300
  C     -8.399840    7.303010    8.712110
  Br    -9.983980    9.680820    9.159740
  C     -4.597910    3.951410    8.404430
  O     -5.136360    2.915320    8.020370
  C     -3.200650    4.167870    8.773520
  C     -2.188220    3.245840    8.924060
  C     -1.987880    1.911140    8.543400
  O     -0.890080    1.328480    9.137950
  C     -0.721210    0.124580    8.649690
  C     -1.682840   -0.168800    7.704560
  N     -1.823740   -1.457590    7.145000
  O     -0.880900   -2.214200    7.267400
  O     -2.880110   -1.758220    6.614870
  C     -2.521620    0.996860    7.600190
  N     -3.526920    1.240170    6.751760
  C     -3.758530    0.584180    5.565840
  C     -4.912180    0.593190    4.887540
  C     -6.182660    1.242470    5.333360
  C     -5.002160   -0.174760    3.590070
  N     -5.773980   -1.389130    3.758710
  C     -5.407930   -2.377230    4.583790
  C     -6.158390   -3.495800    4.812390
  C     -5.737420   -4.524840    5.660230
  C     -6.460910   -5.667530    5.911660
  C     -6.102100   -6.756050    6.733800
  C     -7.030670   -7.756950    6.776770
  C     -8.175030   -7.504870    5.993300
  S     -8.041550   -5.965960    5.193790
  C     -9.296720   -8.308970    5.828340
  C     -9.546610   -9.580870    6.368480
  C    -10.760450  -10.102140    6.007490
  C    -11.520110   -9.263530    5.170640
  S    -10.650680   -7.786310    4.849690
  C    -12.790230   -9.515650    4.670350
  C    -13.469340   -8.635310    3.847100
  C    -14.744850   -8.753350    3.320920
  C    -15.105200   -7.948660    2.137740
  O    -14.470050   -7.033060    1.652690
  C    -16.376920   -8.518530    1.644640
  C    -17.093490   -8.191830    0.531980
  C    -18.277110   -8.908000    0.238620
  C    -18.688720   -9.956810    1.109630
  C    -19.862830  -10.673040    0.808140
  C    -20.581850  -10.344910   -0.307310
  C    -20.195820   -9.315390   -1.174420
  C    -19.056400   -8.611450   -0.897130
  F    -21.707050  -11.029520   -0.596760
  C    -17.928300  -10.266360    2.263380
  C    -16.793090   -9.552970    2.530390
  C    -15.839690   -9.618430    3.641980
  C    -16.087530  -10.247390    4.844280
  C    -15.333590  -10.055380    6.016470
  N    -14.794390   -9.902680    7.020270
  C    -17.201010  -11.072780    5.083990
  N    -18.074600  -11.777430    5.333600
  H     -7.316650    4.732140    8.120230
  H     -4.131610    8.221370    9.791190
  H     -9.254030    6.741400    8.380650
  H     -1.327950    3.598300    9.482760
  H      0.078830   -0.486190    9.023640
  H     -4.231850    1.911450    7.099260
  H     -2.900450    0.076640    5.148800
  H     -6.094680    1.705810    6.310120
  H     -6.979640    0.499840    5.379350
  H     -6.482850    2.004850    4.613020
  H     -3.998530   -0.436150    3.239590
  H     -5.491280    0.430540    2.824200
  H     -6.682320   -1.447630    3.323580
  H     -4.458210   -2.248130    5.084040
  H     -7.115380   -3.606780    4.318270
  H     -4.779300   -4.418310    6.151010
  H     -5.168440   -6.770580    7.268100
  H     -6.922660   -8.659060    7.351170
  H     -8.838100  -10.084640    7.001320
  H    -11.131610  -11.058860    6.328550
  H    -13.232680  -10.462620    4.941350
  H    -12.918490   -7.771040    3.485190
  H    -16.762940   -7.397000   -0.120070
  H    -20.192330  -11.470620    1.455690
  H    -20.803250   -9.100430   -2.039330
  H    -18.737400   -7.813140   -1.550640
  H    -18.264800  -11.067540    2.901910

 Total Charge           Charge          ....    0
 Multiplicity           Mult            ....    1
 Number of Electrons    NEL             ....  520
 Basis Dimension        Dim             .... 1131

ORBITAL ENERGIES
----------------

  NO   OCC          E(Eh)            E(eV)
   0   2.0000    -482.897940    -13140.3210
   1   2.0000     -88.990987     -2421.5679
   2   2.0000     -88.954241     -2420.5680
   3   2.0000     -88.944007     -2420.2895
   4   2.0000     -62.575613     -1702.7690
   5   2.0000     -56.409586     -1534.9829
   6   2.0000     -56.406834     -1534.9080
   7   2.0000     -56.406807     -1534.9072
   8   2.0000     -24.763000      -673.8355
   9   2.0000     -19.353519      -526.6360
  10   2.0000     -19.282325      -524.6987
  11   2.0000     -19.280264      -524.6427
  12   2.0000     -19.250803      -523.8410
  13   2.0000     -19.174138      -521.7548
  14   2.0000     -14.693419      -399.8283
  15   2.0000     -14.480097      -394.0235
  16   2.0000     -14.468200      -393.6997
  17   2.0000     -14.431977      -392.7141
  18   2.0000     -14.429693      -392.6519
  19   2.0000     -14.378705      -391.2645
  20   2.0000     -14.376414      -391.2021
  21   2.0000     -10.410479      -283.2835
  22   2.0000     -10.399950      -282.9970
  23   2.0000     -10.394734      -282.8551
  24   2.0000     -10.380260      -282.4612
  25   2.0000     -10.373477      -282.2767
  26   2.0000     -10.369906      -282.1795
  27   2.0000     -10.359613      -281.8994
  28   2.0000     -10.358997      -281.8826
  29   2.0000     -10.350392      -281.6485
  30   2.0000     -10.344155      -281.4788
  31   2.0000     -10.343578      -281.4631
  32   2.0000     -10.342407      -281.4312
  33   2.0000     -10.339235      -281.3449
  34   2.0000     -10.334613      -281.2191
  35   2.0000     -10.334537      -281.2170
  36   2.0000     -10.332321      -281.1567
  37   2.0000     -10.326573      -281.0003
  38   2.0000     -10.325870      -280.9812
  39   2.0000     -10.325569      -280.9730
  40   2.0000     -10.324314      -280.9389
  41   2.0000     -10.322653      -280.8937
  42   2.0000     -10.322559      -280.8911
  43   2.0000     -10.320877      -280.8453
  44   2.0000     -10.312494      -280.6172
  45   2.0000     -10.311291      -280.5845
  46   2.0000     -10.309023      -280.5228
  47   2.0000     -10.306953      -280.4664
  48   2.0000     -10.304521      -280.4003
  49   2.0000     -10.301768      -280.3253
  50   2.0000     -10.300254      -280.2842
  51   2.0000     -10.299040      -280.2511
  52   2.0000     -10.299029      -280.2508
  53   2.0000     -10.297856      -280.2189
  54   2.0000     -10.287939      -279.9490
  55   2.0000     -10.286153      -279.9004
  56   2.0000     -10.285641      -279.8865
  57   2.0000     -10.283784      -279.8360
  58   2.0000     -10.280971      -279.7595
  59   2.0000     -10.278406      -279.6897
  60   2.0000     -10.277487      -279.6646
  61   2.0000     -10.275756      -279.6175
  62   2.0000     -10.273222      -279.5486
  63   2.0000     -10.272940      -279.5409
  64   2.0000     -10.272578      -279.5310
  65   2.0000     -10.270019      -279.4614
  66   2.0000     -10.269888      -279.4579
  67   2.0000     -10.268662      -279.4245
  68   2.0000     -10.265813      -279.3470
  69   2.0000     -10.263945      -279.2961
  70   2.0000     -10.257269      -279.1145
  71   2.0000     -10.255622      -279.0697
  72   2.0000     -10.249333      -278.8985
  73   2.0000      -8.805013      -239.5966
  74   2.0000      -8.086891      -220.0555
  75   2.0000      -8.050481      -219.0647
  76   2.0000      -8.040141      -218.7834
  77   2.0000      -6.641390      -180.7214
  78   2.0000      -6.626724      -180.3223
  79   2.0000      -6.626478      -180.3156
  80   2.0000      -6.056554      -164.8072
  81   2.0000      -6.052270      -164.6906
  82   2.0000      -6.048188      -164.5796
  83   2.0000      -6.020051      -163.8139
  84   2.0000      -6.016057      -163.7052
  85   2.0000      -6.011698      -163.5866
  86   2.0000      -6.009653      -163.5310
  87   2.0000      -6.005696      -163.4233
  88   2.0000      -6.001463      -163.3081
  89   2.0000      -2.757271       -75.0292
  90   2.0000      -2.753122       -74.9163
  91   2.0000      -2.752952       -74.9116
  92   2.0000      -2.741309       -74.5948
  93   2.0000      -2.741279       -74.5940
  94   2.0000      -1.362184       -37.0669
  95   2.0000      -1.277532       -34.7634
  96   2.0000      -1.276984       -34.7485
  97   2.0000      -1.179450       -32.0945
  98   2.0000      -1.163958       -31.6729
  99   2.0000      -1.092395       -29.7256
 100   2.0000      -1.088068       -29.6078
 101   2.0000      -1.067145       -29.0385
 102   2.0000      -1.040704       -28.3190
 103   2.0000      -1.029304       -28.0088
 104   2.0000      -1.009455       -27.4687
 105   2.0000      -1.008495       -27.4426
 106   2.0000      -0.998752       -27.1774
 107   2.0000      -0.983603       -26.7652
 108   2.0000      -0.981831       -26.7170
 109   2.0000      -0.973862       -26.5001
 110   2.0000      -0.968043       -26.3418
 111   2.0000      -0.963711       -26.2239
 112   2.0000      -0.956819       -26.0364
 113   2.0000      -0.945394       -25.7255
 114   2.0000      -0.943674       -25.6787
 115   2.0000      -0.926463       -25.2103
 116   2.0000      -0.924949       -25.1691
 117   2.0000      -0.909837       -24.7579
 118   2.0000      -0.902821       -24.5670
 119   2.0000      -0.899133       -24.4667
 120   2.0000      -0.896592       -24.3975
 121   2.0000      -0.882179       -24.0053
 122   2.0000      -0.871170       -23.7057
 123   2.0000      -0.863576       -23.4991
 124   2.0000      -0.857314       -23.3287
 125   2.0000      -0.851544       -23.1717
 126   2.0000      -0.850404       -23.1407
 127   2.0000      -0.844941       -22.9920
 128   2.0000      -0.844800       -22.9882
 129   2.0000      -0.825185       -22.4544
 130   2.0000      -0.819998       -22.3133
 131   2.0000      -0.810874       -22.0650
 132   2.0000      -0.806016       -21.9328
 133   2.0000      -0.800042       -21.7702
 134   2.0000      -0.793723       -21.5983
 135   2.0000      -0.781791       -21.2736
 136   2.0000      -0.778843       -21.1934
 137   2.0000      -0.755177       -20.5494
 138   2.0000      -0.745130       -20.2760
 139   2.0000      -0.733804       -19.9678
 140   2.0000      -0.725763       -19.7490
 141   2.0000      -0.721465       -19.6321
 142   2.0000      -0.717721       -19.5302
 143   2.0000      -0.710081       -19.3223
 144   2.0000      -0.707079       -19.2406
 145   2.0000      -0.705176       -19.1888
 146   2.0000      -0.691516       -18.8171
 147   2.0000      -0.681577       -18.5467
 148   2.0000      -0.680781       -18.5250
 149   2.0000      -0.678844       -18.4723
 150   2.0000      -0.674829       -18.3630
 151   2.0000      -0.672231       -18.2923
 152   2.0000      -0.665570       -18.1111
 153   2.0000      -0.657501       -17.8915
 154   2.0000      -0.652259       -17.7489
 155   2.0000      -0.644343       -17.5335
 156   2.0000      -0.641994       -17.4695
 157   2.0000      -0.638574       -17.3765
 158   2.0000      -0.636067       -17.3083
 159   2.0000      -0.632500       -17.2112
 160   2.0000      -0.619615       -16.8606
 161   2.0000      -0.618496       -16.8301
 162   2.0000      -0.615945       -16.7607
 163   2.0000      -0.611688       -16.6449
 164   2.0000      -0.609083       -16.5740
 165   2.0000      -0.604050       -16.4370
 166   2.0000      -0.602895       -16.4056
 167   2.0000      -0.602292       -16.3892
 168   2.0000      -0.599226       -16.3058
 169   2.0000      -0.598544       -16.2872
 170   2.0000      -0.597273       -16.2526
 171   2.0000      -0.589248       -16.0343
 172   2.0000      -0.580285       -15.7904
 173   2.0000      -0.576403       -15.6847
 174   2.0000      -0.563180       -15.3249
 175   2.0000      -0.561822       -15.2879
 176   2.0000      -0.559885       -15.2352
 177   2.0000      -0.555837       -15.1251
 178   2.0000      -0.551787       -15.0149
 179   2.0000      -0.545358       -14.8399
 180   2.0000      -0.542242       -14.7552
 181   2.0000      -0.541536       -14.7360
 182   2.0000      -0.537754       -14.6330
 183   2.0000      -0.534972       -14.5573
 184   2.0000      -0.534852       -14.5541
 185   2.0000      -0.531103       -14.4521
 186   2.0000      -0.525647       -14.3036
 187   2.0000      -0.525109       -14.2889
 188   2.0000      -0.523132       -14.2351
 189   2.0000      -0.516544       -14.0559
 190   2.0000      -0.515414       -14.0251
 191   2.0000      -0.513763       -13.9802
 192   2.0000      -0.508263       -13.8305
 193   2.0000      -0.503682       -13.7059
 194   2.0000      -0.502002       -13.6602
 195   2.0000      -0.500625       -13.6227
 196   2.0000      -0.498287       -13.5591
 197   2.0000      -0.496468       -13.5096
 198   2.0000      -0.496225       -13.5030
 199   2.0000      -0.493493       -13.4286
 200   2.0000      -0.490338       -13.3428
 201   2.0000      -0.486930       -13.2500
 202   2.0000      -0.483587       -13.1591
 203   2.0000      -0.482874       -13.1397
 204   2.0000      -0.478735       -13.0270
 205   2.0000      -0.474500       -12.9118
 206   2.0000      -0.473100       -12.8737
 207   2.0000      -0.471004       -12.8167
 208   2.0000      -0.467748       -12.7281
 209   2.0000      -0.466538       -12.6951
 210   2.0000      -0.464927       -12.6513
 211   2.0000      -0.463458       -12.6113
 212   2.0000      -0.462493       -12.5851
 213   2.0000      -0.458329       -12.4718
 214   2.0000      -0.457054       -12.4371
 215   2.0000      -0.455040       -12.3823
 216   2.0000      -0.453087       -12.3291
 217   2.0000      -0.448981       -12.2174
 218   2.0000      -0.446319       -12.1449
 219   2.0000      -0.441160       -12.0046
 220   2.0000      -0.440654       -11.9908
 221   2.0000      -0.438123       -11.9219
 222   2.0000      -0.437755       -11.9119
 223   2.0000      -0.433650       -11.8002
 224   2.0000      -0.429533       -11.6882
 225   2.0000      -0.428464       -11.6591
 226   2.0000      -0.422931       -11.5085
 227   2.0000      -0.421666       -11.4741
 228   2.0000      -0.420271       -11.4362
 229   2.0000      -0.415977       -11.3193
 230   2.0000      -0.414239       -11.2720
 231   2.0000      -0.410921       -11.1817
 232   2.0000      -0.408700       -11.1213
 233   2.0000      -0.407073       -11.0770
 234   2.0000      -0.405133       -11.0242
 235   2.0000      -0.403886       -10.9903
 236   2.0000      -0.402094       -10.9415
 237   2.0000      -0.397978       -10.8295
 238   2.0000      -0.395842       -10.7714
 239   2.0000      -0.389972       -10.6117
 240   2.0000      -0.387201       -10.5363
 241   2.0000      -0.384932       -10.4745
 242   2.0000      -0.378286       -10.2937
 243   2.0000      -0.377395       -10.2694
 244   2.0000      -0.372311       -10.1311
 245   2.0000      -0.368713       -10.0332
 246   2.0000      -0.354269        -9.6402
 247   2.0000      -0.346562        -9.4304
 248   2.0000      -0.338973        -9.2239
 249   2.0000      -0.336554        -9.1581
 250   2.0000      -0.331875        -9.0308
 251   2.0000      -0.321283        -8.7426
 252   2.0000      -0.313177        -8.5220
 253   2.0000      -0.309454        -8.4207
 254   2.0000      -0.300130        -8.1669
 255   2.0000      -0.288369        -7.8469
 256   2.0000      -0.284235        -7.7344
 257   2.0000      -0.273342        -7.4380
 258   2.0000      -0.262573        -7.1450
 259   2.0000      -0.205391        -5.5890
 260   0.0000      -0.109598        -2.9823
 261   0.0000      -0.089001        -2.4218
 262   0.0000      -0.088015        -2.3950
 263   0.0000      -0.081381        -2.2145
 264   0.0000      -0.038052        -1.0355

MULLIKEN ATOMIC CHARGES
-----------------------
   0 C :    0.299345
   1 C :   -0.346986
   2 C :   -0.183997
   3 N :    0.157512
   4 C :   -0.209358
   5 N :    0.167088
   6 C :    0.012458
   7 C :   -0.009396
   8 C :   -0.069552
   9 C :    0.116385
  10 C :   -0.094031
  11 C :   -0.013401
  12 S :    0.197103
  13 C :   -0.123686
  14 C :    0.041840
  15 Br:    0.034577
  16 C :    0.174201
  17 O :   -0.227253
  18 C :   -0.074613
  19 C :   -0.066710
  20 C :    0.080619
  21 O :   -0.150120
  22 C :    0.145729
  23 C :    0.032509
  24 N :    0.278510
  25 O :   -0.231137
  26 O :   -0.243869
  27 C :    0.052986
  28 N :   -0.002104
  29 C :    0.082755
  30 C :   -0.221418
  31 C :    0.091694
  32 C :    0.192558
  33 N :   -0.140382
  34 C :    0.087525
  35 C :   -0.041363
  36 C :    0.026646
  37 C :   -0.058721
  38 C :    0.060867
  39 C :    0.002650
  40 C :   -0.014978
  41 S :    0.089817
  42 C :   -0.070965
  43 C :    0.036347
  44 C :    0.026161
  45 C :   -0.013585
  46 S :    0.097980
  47 C :   -0.006262
  48 C :    0.014635
  49 C :   -0.140808
  50 C :    0.133982
  51 O :   -0.174598
  52 C :    0.008644
  53 C :   -0.094118
  54 C :    0.103802
  55 C :    0.102385
  56 C :   -0.101384
  57 C :    0.298544
  58 C :   -0.035257
  59 C :   -0.014674
  60 F :   -0.199152
  61 C :   -0.097726
  62 C :    0.044844
  63 C :    0.299074
  64 C :   -0.363187
  65 C :   -0.222656
  66 N :    0.145290
  67 C :   -0.174618
  68 N :    0.116934
  69 H :   -0.009688
  70 H :   -0.002455
  71 H :   -0.001188
  72 H :    0.044817
  73 H :    0.050814
  74 H :    0.165461
  75 H :   -0.007577
  76 H :    0.018572
  77 H :    0.020488
  78 H :    0.020603
  79 H :    0.019698
  80 H :    0.019985
  81 H :    0.129584
  82 H :    0.013714
  83 H :   -0.008466
  84 H :    0.000524
  85 H :   -0.008426
  86 H :   -0.012526
  87 H :   -0.010525
  88 H :   -0.005522
  89 H :    0.001244
  90 H :    0.006222
  91 H :   -0.023858
  92 H :   -0.007938
  93 H :   -0.006360
  94 H :   -0.017558
  95 H :   -0.011569
Sum of atomic charges:   -0.0000000

LOEWDIN ATOMIC CHARGES
----------------------
   0 C :    0.077006
   1 C :   -0.139282
   2 C :   -0.018601
   3 N :   -0.047350
   4 C :   -0.028730
   5 N :   -0.045933
   6 C :   -0.019531
   7 C :   -0.053489
   8 C :    0.025211
   9 C :   -0.032693
  10 C :   -0.141746
  11 C :   -0.006440
  12 S :    0.441627
  13 C :   -0.268876
  14 C :   -0.069936
  15 Br:    0.144974
  16 C :    0.104718
  17 O :   -0.166973
  18 C :   -0.117197
  19 C :    0.055042
  20 C :   -0.022094
  21 O :    0.053920
  22 C :    0.130158
  23 C :   -0.115934
  24 N :    0.293063
  25 O :   -0.195791
  26 O :   -0.206265
  27 C :    0.047415
  28 N :    0.059281
  29 C :    0.005662
  30 C :   -0.077049
  31 C :   -0.054160
  32 C :    0.050845
  33 N :    0.020947
  34 C :    0.083663
  35 C :   -0.125910
  36 C :    0.013131
  37 C :   -0.193148
  38 C :   -0.002896
  39 C :   -0.062232
  40 C :   -0.134046
  41 S :    0.391424
  42 C :   -0.216203
  43 C :   -0.006804
  44 C :   -0.055376
  45 C :   -0.097167
  46 S :    0.401999
  47 C :   -0.083450
  48 C :    0.046839
  49 C :   -0.125814
  50 C :    0.073762
  51 O :   -0.175636
  52 C :   -0.053192
  53 C :    0.020842
  54 C :   -0.022345
  55 C :    0.000608
  56 C :   -0.044667
  57 C :    0.086992
  58 C :   -0.046821
  59 C :   -0.000425
  60 F :   -0.073354
  61 C :    0.000837
  62 C :   -0.011065
  63 C :    0.066497
  64 C :   -0.168651
  65 C :   -0.023605
  66 N :   -0.076536
  67 C :   -0.019439
  68 N :   -0.082134
  69 H :    0.041015
  70 H :    0.042616
  71 H :    0.039829
  72 H :    0.060634
  73 H :    0.048485
  74 H :    0.063522
  75 H :    0.016989
  76 H :    0.027862
  77 H :    0.033523
  78 H :    0.035206
  79 H :    0.028088
  80 H :    0.032795
  81 H :    0.084916
  82 H :    0.032103
  83 H :    0.019123
  84 H :    0.040338
  85 H :    0.035845
  86 H :    0.032059
  87 H :    0.033111
  88 H :    0.036921
  89 H :    0.035711
  90 H :    0.029895
  91 H :    0.034592
  92 H :    0.040909
  93 H :    0.037476
  94 H :    0.032052
  95 H :    0.036909

  Mayer bond orders larger than 0.100000
B(  0-C ,  1-C ) :   1.6323 B(  0-C ,  6-C ) :   1.0004 B(  0-C , 18-C ) :   1.0769
B(  1-C ,  2-C ) :   1.1444 B(  1-C ,  4-C ) :   1.1403 B(  2-C ,  3-N ) :   2.9704
B(  4-C ,  5-N ) :   2.9905 B(  6-C ,  7-C ) :   1.2684 B(  6-C , 11-C ) :   1.4191
B(  7-C ,  8-C ) :   1.4152 B(  7-C , 16-C ) :   0.9840 B(  8-C ,  9-C ) :   1.2462
B(  8-C , 69-H ) :   1.0168 B(  9-C , 10-C ) :   1.3040 B(  9-C , 14-C ) :   1.1654
B( 10-C , 11-C ) :   1.3235 B( 10-C , 12-S ) :   1.0936 B( 11-C , 70-H ) :   0.9790
B( 12-S , 13-C ) :   1.0883 B( 13-C , 14-C ) :   1.6164 B( 13-C , 15-Br) :   1.0250
B( 14-C , 71-H ) :   0.9997 B( 16-C , 17-O ) :   1.9739 B( 16-C , 18-C ) :   1.0073
B( 17-O , 74-H ) :   0.1582 B( 18-C , 19-C ) :   1.4918 B( 19-C , 20-C ) :   1.2915
B( 19-C , 72-H ) :   0.9125 B( 20-C , 21-O ) :   1.0518 B( 20-C , 27-C ) :   1.2750
B( 21-O , 22-C ) :   1.2738 B( 22-C , 23-C ) :   1.4208 B( 22-C , 73-H ) :   1.0053
B( 23-C , 24-N ) :   0.9347 B( 23-C , 27-C ) :   1.2114 B( 24-N , 25-O ) :   1.5484
B( 24-N , 26-O ) :   1.4894 B( 25-O , 26-O ) :   0.2551 B( 27-C , 28-N ) :   1.3656
B( 28-N , 29-C ) :   1.1028 B( 28-N , 74-H ) :   0.8052 B( 29-C , 30-C ) :   1.8185
B( 29-C , 75-H ) :   0.9363 B( 30-C , 31-C ) :   1.0753 B( 30-C , 32-C ) :   1.0424
B( 31-C , 76-H ) :   0.9466 B( 31-C , 77-H ) :   0.9435 B( 31-C , 78-H ) :   0.9460
B( 32-C , 33-N ) :   0.9964 B( 32-C , 79-H ) :   0.9425 B( 32-C , 80-H ) :   0.9425
B( 33-N , 34-C ) :   1.2813 B( 33-N , 81-H ) :   0.9364 B( 34-C , 35-C ) :   1.5257
B( 34-C , 82-H ) :   0.9573 B( 35-C , 36-C ) :   1.2358 B( 35-C , 83-H ) :   0.9656
B( 36-C , 37-C ) :   1.5049 B( 36-C , 84-H ) :   0.9825 B( 37-C , 38-C ) :   1.1923
B( 37-C , 41-S ) :   1.0124 B( 38-C , 39-C ) :   1.5317 B( 38-C , 85-H ) :   0.9981
B( 39-C , 40-C ) :   1.2375 B( 39-C , 86-H ) :   0.9947 B( 40-C , 41-S ) :   1.1081
B( 40-C , 42-C ) :   1.4013 B( 42-C , 43-C ) :   1.2705 B( 42-C , 46-S ) :   1.0381
B( 43-C , 44-C ) :   1.4867 B( 43-C , 87-H ) :   0.9942 B( 44-C , 45-C ) :   1.2307
B( 44-C , 88-H ) :   1.0011 B( 45-C , 46-S ) :   1.1054 B( 45-C , 47-C ) :   1.4187
B( 47-C , 48-C ) :   1.3027 B( 47-C , 89-H ) :   0.9640 B( 48-C , 49-C ) :   1.4382
B( 48-C , 90-H ) :   0.9380 B( 49-C , 50-C ) :   0.9863 B( 49-C , 63-C ) :   1.1292
B( 50-C , 51-O ) :   2.2278 B( 50-C , 52-C ) :   0.9146 B( 52-C , 53-C ) :   1.4876
B( 52-C , 62-C ) :   1.2189 B( 53-C , 54-C ) :   1.1751 B( 53-C , 91-H ) :   1.0146
B( 54-C , 55-C ) :   1.2656 B( 54-C , 59-C ) :   1.2397 B( 55-C , 56-C ) :   1.2063
B( 55-C , 61-C ) :   1.1888 B( 56-C , 57-C ) :   1.4370 B( 56-C , 92-H ) :   1.0068
B( 57-C , 58-C ) :   1.2630 B( 57-C , 60-F ) :   1.0795 B( 58-C , 59-C ) :   1.4509
B( 58-C , 93-H ) :   0.9928 B( 59-C , 94-H ) :   0.9968 B( 61-C , 62-C ) :   1.4757
B( 61-C , 95-H ) :   0.9927 B( 62-C , 63-C ) :   0.9820 B( 63-C , 64-C ) :   1.5622
B( 64-C , 65-C ) :   1.1737 B( 64-C , 67-C ) :   1.1393 B( 65-C , 66-N ) :   3.0076
B( 67-C , 68-N ) :   2.9636

-----------------------------------------------------------------------------
         ABSORPTION SPECTRUM VIA TRANSITION ELECTRIC DIPOLE MOMENTS
-----------------------------------------------------------------------------
State   Energy  Wavelength   fosc         T2         TX        TY        TZ
        (cm-1)    (nm)                  (au**2)     (au)      (au)      (au)
-----------------------------------------------------------------------------
   0   11650.3    858.3   1.487763061  42.04089   5.45992   3.32804   1.07437
   1   12538.7    797.5   0.013585092   0.35668   0.56642   0.18316   0.04803
   2   15719.5    636.2   0.000066334   0.00139   0.03487   0.00447   0.01238
   3   17838.9    560.6   0.000172171   0.00318   0.05469  -0.01190  -0.00668
   4   21039.3    475.3   0.709835990  11.10716  -0.46388   3.05068   1.25909
   5   21770.2    459.3   0.001354653   0.02049  -0.01525   0.14115   0.01815
   6   23660.2    422.7   0.027187319   0.37829  -0.13690  -0.59183  -0.09636
   7   24162.0    413.9   0.026498191   0.36104  -0.56933  -0.02065  -0.19098
   8   24531.0    407.6   0.002702093   0.03626   0.08051   0.13676  -0.10525
   9   24922.9    401.2   0.003326240   0.04394  -0.00451   0.08927   0.18960
  10   25254.7    396.0   0.208199193   2.71401   0.19327  -1.41491   0.82139
  11   27166.3    368.1   0.267075416   3.23653  -1.37204   1.00756  -0.58212
  12   27274.3    366.6   0.155881792   1.88155   0.18784   0.62181  -1.20815
  13   27650.7    361.7   0.029200179   0.34766   0.04890  -0.39038   0.43917
  14   28077.3    356.2   0.000326018   0.00382  -0.02564   0.02613  -0.04982
  15   28978.5    345.1   0.041773306   0.47457   0.26730  -0.15354   0.61607
  16   29008.9    344.7   0.133245239   1.51216   1.19429  -0.29041   0.03858
  17   29872.8    334.8   0.002292008   0.02526   0.12800  -0.09280   0.01622
  18   30189.3    331.2   0.000521049   0.00568   0.00917  -0.07229   0.01931
  19   30397.8    329.0   0.000856876   0.00928  -0.02585   0.05965  -0.07109
  20   30611.3    326.7   0.059750034   0.64259   0.26717  -0.47248   0.58989
  21   31754.9    314.9   0.034283066   0.35542  -0.14200   0.29567  -0.49784
  22   31926.4    313.2   0.600076367   6.18774   2.19049  -1.15671   0.22692
  23   32026.9    312.2   0.179864807   1.84887   1.24428  -0.54489   0.06105
  24   32152.6    311.0   0.135109016   1.38339   1.05658   0.24311   0.45599
  25   32258.9    310.0   0.224736081   2.29350  -0.50063   0.90202  -1.10871
  26   32371.8    308.9   0.006956947   0.07075   0.18408  -0.19197   0.00307
  27   32762.3    305.2   0.152419048   1.53158   0.39205  -1.16738   0.12284
  28   32958.3    303.4   0.003639638   0.03636  -0.12516   0.13849  -0.03887
  29   33374.3    299.6   0.034987374   0.34512   0.41317  -0.09086   0.40763
  30   34042.4    293.8   0.504030469   4.87430   1.37343  -0.18205   1.71897
  31   34118.1    293.1   0.013008348   0.12552  -0.30514   0.01631  -0.17928
  32   34491.7    289.9   0.256293838   2.44624  -1.04472   1.15836   0.11406
  33   34740.1    287.9   0.047302182   0.44826  -0.43516   0.50872  -0.00971
  34   34982.2    285.9   0.155159444   1.46018  -0.14898  -0.93536   0.75040
  35   35159.4    284.4   0.000668115   0.00626  -0.03978   0.02292   0.06440
  36   35459.2    282.0   0.000413710   0.00384  -0.05060  -0.00526  -0.03540
  37   36229.0    276.0   0.000995766   0.00905   0.07649   0.02781   0.04924
  38   36550.6    273.6   0.264458564   2.38199   0.59939   1.35319   0.43773
  39   36750.3    272.1   0.025239920   0.22610   0.39424  -0.25560  -0.07312
  40   36899.2    271.0   0.005573951   0.04973  -0.10447  -0.19078  -0.04921
  41   37128.9    269.3   0.002554336   0.02265   0.11196   0.09678   0.02734
  42   37227.0    268.6   0.014896962   0.13174  -0.34070  -0.10182  -0.07280
  43   37540.3    266.4   0.000899289   0.00789  -0.08810  -0.00509   0.00992
  44   37676.6    265.4   0.069078580   0.60360  -0.56825  -0.46163  -0.25998
  45   37837.6    264.3   0.176205200   1.53310   0.30309  -0.46316   1.10757
  46   38012.0    263.1   0.029588970   0.25626   0.08219   0.31848  -0.38481
  47   38241.7    261.5   0.126465279   1.08870   0.10307  -0.36861   0.97067
  48   38439.8    260.1   0.000020451   0.00018  -0.00722  -0.00450   0.01014
  49   39043.8    256.1   0.005990324   0.05051  -0.00909   0.20299   0.09603
  50   39746.8    251.6   0.052477738   0.43466  -0.48597  -0.44541   0.00970
  51   39822.6    251.1   0.003480019   0.02877  -0.07196  -0.14439  -0.05238
  52   39862.8    250.9   0.192315973   1.58827   1.02885   0.55329   0.47288
  53   40110.4    249.3   0.163173246   1.33927  -0.04103   0.71494  -0.90909
  54   40242.6    248.5   0.000295999   0.00242  -0.02929  -0.02492   0.03070

FINAL SINGLE POINT ENERGY     -6621.401298724315

DIPOLE MOMENT
-------------
                                X             Y             Z
Electronic contribution:    -22.43585     139.16673      48.93119
Nuclear contribution   :     28.29040    -133.78789     -49.00868
                        -----------------------------------------
Total Dipole Moment    :      5.85454       5.37885      -0.07749
                        -----------------------------------------
Magnitude (a.u.)       :      7.95070
Magnitude (Debye)      :     20.20908

Rotational constants in cm-1:     0.000988     0.000200     0.000174
Rotational constants in MHz :    29.615077     6.002263     5.212472

                             ****ORCA TERMINATED NORMALLY****
TOTAL RUN TIME: 0 days 0 hours 10 minutes 15 seconds 198 msec
