                         Program Version 4.2.0 -  RELEASE  -
|  1> # ORCA input file
|  2> # SCF done       -189.859454802187          0.000606290674
|  3> ! CAM-B3LYP def2-SVP def2/J RIJCOSX Grid4 TightSCF
|  4> %maxcore 5000
|  5> %tddft
|  6>     Mode sTDDFT
|  7>     Ethresh 5.0
|  8>     maxcore 5000
|  9> end
| 10>
| 11> %pal
| 12>   nprocs 6
| 13>   end
| 14> * xyz 0 1
| 15>    C       -2.40372         0.42286         3.61774
| 16>    C       -2.96821        -0.81142         3.40828
| 17>    C       -2.70509        -1.94480         4.20587
| 18>    N       -2.53848        -2.90615         4.81145
| 19>    C       -3.88828        -1.15688         2.39723
| 20>    N       -4.64068        -1.53603         1.61510
| 21>    C       -1.46878         0.73135         4.69627
| 22>    C       -1.12173         2.10054         4.60933
| 23>    C       -0.25512         2.70757         5.48525
| 24>    C        0.29959         1.92221         6.50091
| 25>    C       -0.05150         0.55426         6.58157
| 26>    C       -0.92934        -0.05778         5.69410
| 27>    S        0.74627        -0.23264         7.90939
| 28>    C        1.52982         1.26669         8.33199
| 29>    C        1.21210         2.30430         7.52203
| 30>   Br        2.69333         1.32088         9.80230
| 31>    C       -1.82272         2.70948         3.46794
| 32>    O       -1.72988         3.88700         3.14343
| 33>    C       -2.61164         1.63682         2.84878
| 34>    C       -3.40674         1.70290         1.72351
| 35>    C       -3.69977         2.76255         0.85916
| 36>    N       -3.24393         4.05760         0.97157
| 37>    C       -3.72143         4.76663        -0.06826
| 38>    C       -3.72060         6.02422        -0.66492
| 39>    C       -4.50370         5.91096        -1.81961
| 40>    N       -4.98961         4.62374        -1.92722
| 41>    C       -4.52015         3.89789        -0.87593
| 42>    C       -4.51254         2.64642        -0.29749
| 43>    C       -4.74672         6.93234        -2.77248
| 44>    C       -5.49773         6.81058        -3.89570
| 45>    C       -5.60638         7.83424        -4.87671
| 46>    O       -4.83065         8.95297        -4.76828
| 47>    C       -4.97765         9.69303        -5.85309
| 48>    C       -5.85888         9.09434        -6.72386
| 49>    N       -6.24396         9.56582        -7.99190
| 50>    O       -5.88604        10.67569        -8.32042
| 51>    O       -6.91902         8.81338        -8.68382
| 52>    C       -6.29959         7.88220        -6.09023
| 53>    N       -7.21309         7.04206        -6.64457
| 54>    C       -7.98053         6.11254        -6.03580
| 55>    C       -8.78420         5.26024        -6.73818
| 56>    C       -9.65431         4.25986        -6.23490
| 57>    C      -10.27102         3.52572        -7.20121
| 58>    C       -9.91479         3.89730        -8.51826
| 59>    S       -8.81246         5.24993        -8.50047
| 60>    C      -10.23625         3.29485        -9.71917
| 61>    C      -10.96580         2.11877        -9.99123
| 62>    C      -10.88081         1.71782       -11.29188
| 63>    C      -10.06023         2.53714       -12.10777
| 64>    S       -9.51225         3.90851       -11.18980
| 65>    C       -9.76320         2.31899       -13.44239
| 66>    C       -8.89302         3.01510       -14.27807
| 67>    C       -7.86460         3.90960       -14.03010
| 68>    C       -7.48487         4.84648       -15.11985
| 69>    O       -7.84794         4.80280       -16.27559
| 70>    C       -6.61588         5.85961       -14.48461
| 71>    C       -6.09105         7.00396       -15.00823
| 72>    C       -5.31321         7.84759       -14.18020
| 73>    C       -5.10171         7.48600       -12.81887
| 74>    C       -4.33341         8.33301       -11.99837
| 75>    C       -3.80217         9.47793       -12.52351
| 76>    C       -3.99794         9.85114       -13.85890
| 77>    C       -4.74590         9.04123       -14.66887
| 78>    F       -3.05349        10.28022       -11.74152
| 79>    C       -5.64972         6.28554       -12.30714
| 80>    C       -6.38803         5.48335       -13.13084
| 81>    C       -7.05225         4.20351       -12.89219
| 82>    C       -6.79468         3.37387       -11.81807
| 83>    C       -7.22396         2.03631       -11.76060
| 84>    N       -7.54723         0.93643       -11.68505
| 85>    C       -6.03720         3.73988       -10.69248
| 86>    N       -5.47379         3.98684        -9.72084
| 87>    H       -0.01230         3.75428         5.38951
| 88>    H       -1.16128        -1.10376         5.80111
| 89>    H        1.60393         3.29826         7.63816
| 90>    H       -3.88899         0.78147         1.42723
| 91>    H       -2.62708         4.34440         1.73497
| 92>    H       -3.22497         6.91454        -0.33538
| 93>    H       -5.54462         4.27509        -2.68798
| 94>    H       -4.99604         1.74710        -0.62243
| 95>    H       -4.26373         7.87760        -2.57311
| 96>    H       -6.00407         5.88712        -4.12967
| 97>    H       -4.42499        10.60780        -5.93999
| 98>    H       -7.37882         7.21513        -7.63997
| 99>    H       -7.96256         6.07784        -4.95682
|100>    H       -9.78816         4.10987        -5.17819
|101>    H      -10.95466         2.71878        -7.00909
|102>    H      -11.50248         1.58910        -9.22494
|103>    H      -11.33981         0.82784       -11.68345
|104>    H      -10.33776         1.52885       -13.91020
|105>    H       -9.08261         2.88951       -15.34137
|106>    H       -6.26624         7.26819       -16.04043
|107>    H       -4.16322         8.07554       -10.96477
|108>    H       -3.55629        10.76672       -14.21914
|109>    H       -4.91099         9.30899       -15.70183
|110>    H       -5.48005         6.03881       -11.27129
|111> *
|112>
|113>                          ****END OF INPUT****

CARTESIAN COORDINATES (ANGSTROEM)
---------------------------------
  C     -2.403720    0.422860    3.617740
  C     -2.968210   -0.811420    3.408280
  C     -2.705090   -1.944800    4.205870
  N     -2.538480   -2.906150    4.811450
  C     -3.888280   -1.156880    2.397230
  N     -4.640680   -1.536030    1.615100
  C     -1.468780    0.731350    4.696270
  C     -1.121730    2.100540    4.609330
  C     -0.255120    2.707570    5.485250
  C      0.299590    1.922210    6.500910
  C     -0.051500    0.554260    6.581570
  C     -0.929340   -0.057780    5.694100
  S      0.746270   -0.232640    7.909390
  C      1.529820    1.266690    8.331990
  C      1.212100    2.304300    7.522030
  Br     2.693330    1.320880    9.802300
  C     -1.822720    2.709480    3.467940
  O     -1.729880    3.887000    3.143430
  C     -2.611640    1.636820    2.848780
  C     -3.406740    1.702900    1.723510
  C     -3.699770    2.762550    0.859160
  N     -3.243930    4.057600    0.971570
  C     -3.721430    4.766630   -0.068260
  C     -3.720600    6.024220   -0.664920
  C     -4.503700    5.910960   -1.819610
  N     -4.989610    4.623740   -1.927220
  C     -4.520150    3.897890   -0.875930
  C     -4.512540    2.646420   -0.297490
  C     -4.746720    6.932340   -2.772480
  C     -5.497730    6.810580   -3.895700
  C     -5.606380    7.834240   -4.876710
  O     -4.830650    8.952970   -4.768280
  C     -4.977650    9.693030   -5.853090
  C     -5.858880    9.094340   -6.723860
  N     -6.243960    9.565820   -7.991900
  O     -5.886040   10.675690   -8.320420
  O     -6.919020    8.813380   -8.683820
  C     -6.299590    7.882200   -6.090230
  N     -7.213090    7.042060   -6.644570
  C     -7.980530    6.112540   -6.035800
  C     -8.784200    5.260240   -6.738180
  C     -9.654310    4.259860   -6.234900
  C    -10.271020    3.525720   -7.201210
  C     -9.914790    3.897300   -8.518260
  S     -8.812460    5.249930   -8.500470
  C    -10.236250    3.294850   -9.719170
  C    -10.965800    2.118770   -9.991230
  C    -10.880810    1.717820  -11.291880
  C    -10.060230    2.537140  -12.107770
  S     -9.512250    3.908510  -11.189800
  C     -9.763200    2.318990  -13.442390
  C     -8.893020    3.015100  -14.278070
  C     -7.864600    3.909600  -14.030100
  C     -7.484870    4.846480  -15.119850
  O     -7.847940    4.802800  -16.275590
  C     -6.615880    5.859610  -14.484610
  C     -6.091050    7.003960  -15.008230
  C     -5.313210    7.847590  -14.180200
  C     -5.101710    7.486000  -12.818870
  C     -4.333410    8.333010  -11.998370
  C     -3.802170    9.477930  -12.523510
  C     -3.997940    9.851140  -13.858900
  C     -4.745900    9.041230  -14.668870
  F     -3.053490   10.280220  -11.741520
  C     -5.649720    6.285540  -12.307140
  C     -6.388030    5.483350  -13.130840
  C     -7.052250    4.203510  -12.892190
  C     -6.794680    3.373870  -11.818070
  C     -7.223960    2.036310  -11.760600
  N     -7.547230    0.936430  -11.685050
  C     -6.037200    3.739880  -10.692480
  N     -5.473790    3.986840   -9.720840
  H     -0.012300    3.754280    5.389510
  H     -1.161280   -1.103760    5.801110
  H      1.603930    3.298260    7.638160
  H     -3.888990    0.781470    1.427230
  H     -2.627080    4.344400    1.734970
  H     -3.224970    6.914540   -0.335380
  H     -5.544620    4.275090   -2.687980
  H     -4.996040    1.747100   -0.622430
  H     -4.263730    7.877600   -2.573110
  H     -6.004070    5.887120   -4.129670
  H     -4.424990   10.607800   -5.939990
  H     -7.378820    7.215130   -7.639970
  H     -7.962560    6.077840   -4.956820
  H     -9.788160    4.109870   -5.178190
  H    -10.954660    2.718780   -7.009090
  H    -11.502480    1.589100   -9.224940
  H    -11.339810    0.827840  -11.683450
  H    -10.337760    1.528850  -13.910200
  H     -9.082610    2.889510  -15.341370
  H     -6.266240    7.268190  -16.040430
  H     -4.163220    8.075540  -10.964770
  H     -3.556290   10.766720  -14.219140
  H     -4.910990    9.308990  -15.701830
  H     -5.480050    6.038810  -11.271290

 Total Charge           Charge          ....    0
 Multiplicity           Mult            ....    1
 Number of Electrons    NEL             ....  536
 Basis Dimension        Dim             .... 1158

ORBITAL ENERGIES
----------------

  NO   OCC          E(Eh)            E(eV)
   0   2.0000    -482.884876    -13139.9655
   1   2.0000     -88.974295     -2421.1137
   2   2.0000     -88.967100     -2420.9179
   3   2.0000     -88.960001     -2420.7247
   4   2.0000     -62.562577     -1702.4143
   5   2.0000     -56.396524     -1534.6274
   6   2.0000     -56.393814     -1534.5537
   7   2.0000     -56.393779     -1534.5527
   8   2.0000     -24.773428      -674.1192
   9   2.0000     -19.341407      -526.3065
  10   2.0000     -19.270934      -524.3888
  11   2.0000     -19.269385      -524.3466
  12   2.0000     -19.224132      -523.1152
  13   2.0000     -19.192136      -522.2446
  14   2.0000     -14.680358      -399.4729
  15   2.0000     -14.493302      -394.3828
  16   2.0000     -14.477064      -393.9409
  17   2.0000     -14.456992      -393.3947
  18   2.0000     -14.412512      -392.1844
  19   2.0000     -14.408731      -392.0815
  20   2.0000     -14.397476      -391.7752
  21   2.0000     -14.393166      -391.6580
  22   2.0000     -10.387169      -282.6492
  23   2.0000     -10.372694      -282.2554
  24   2.0000     -10.369063      -282.1565
  25   2.0000     -10.367068      -282.1023
  26   2.0000     -10.361588      -281.9531
  27   2.0000     -10.357640      -281.8457
  28   2.0000     -10.354808      -281.7686
  29   2.0000     -10.354652      -281.7644
  30   2.0000     -10.342686      -281.4388
  31   2.0000     -10.339377      -281.3487
  32   2.0000     -10.337134      -281.2877
  33   2.0000     -10.335370      -281.2397
  34   2.0000     -10.334691      -281.2212
  35   2.0000     -10.324231      -280.9366
  36   2.0000     -10.323752      -280.9236
  37   2.0000     -10.320895      -280.8458
  38   2.0000     -10.320531      -280.8359
  39   2.0000     -10.318031      -280.7679
  40   2.0000     -10.317694      -280.7587
  41   2.0000     -10.316466      -280.7253
  42   2.0000     -10.316444      -280.7247
  43   2.0000     -10.316221      -280.7186
  44   2.0000     -10.314920      -280.6832
  45   2.0000     -10.314722      -280.6779
  46   2.0000     -10.313083      -280.6333
  47   2.0000     -10.312728      -280.6236
  48   2.0000     -10.311749      -280.5970
  49   2.0000     -10.308715      -280.5144
  50   2.0000     -10.305785      -280.4347
  51   2.0000     -10.305411      -280.4245
  52   2.0000     -10.302898      -280.3561
  53   2.0000     -10.302870      -280.3553
  54   2.0000     -10.302203      -280.3372
  55   2.0000     -10.300277      -280.2848
  56   2.0000     -10.295827      -280.1637
  57   2.0000     -10.295801      -280.1630
  58   2.0000     -10.294900      -280.1385
  59   2.0000     -10.292492      -280.0729
  60   2.0000     -10.290878      -280.0290
  61   2.0000     -10.290619      -280.0220
  62   2.0000     -10.288680      -279.9692
  63   2.0000     -10.288648      -279.9684
  64   2.0000     -10.285159      -279.8734
  65   2.0000     -10.284336      -279.8510
  66   2.0000     -10.283910      -279.8394
  67   2.0000     -10.283161      -279.8190
  68   2.0000     -10.282614      -279.8041
  69   2.0000     -10.281363      -279.7701
  70   2.0000     -10.279082      -279.7080
  71   2.0000     -10.277225      -279.6575
  72   2.0000     -10.276478      -279.6372
  73   2.0000     -10.274523      -279.5840
  74   2.0000     -10.271449      -279.5003
  75   2.0000     -10.269442      -279.4457
  76   2.0000      -8.792000      -239.2425
  77   2.0000      -8.070292      -219.6038
  78   2.0000      -8.063283      -219.4131
  79   2.0000      -8.055009      -219.1879
  80   2.0000      -6.628272      -180.3645
  81   2.0000      -6.613737      -179.9689
  82   2.0000      -6.613559      -179.9641
  83   2.0000      -6.039969      -164.3559
  84   2.0000      -6.035707      -164.2399
  85   2.0000      -6.033087      -164.1687
  86   2.0000      -6.031518      -164.1260
  87   2.0000      -6.028983      -164.0570
  88   2.0000      -6.024455      -163.9338
  89   2.0000      -6.024094      -163.9239
  90   2.0000      -6.020240      -163.8191
  91   2.0000      -6.016775      -163.7248
  92   2.0000      -2.744187       -74.6731
  93   2.0000      -2.740056       -74.5607
  94   2.0000      -2.739913       -74.5568
  95   2.0000      -2.728374       -74.2428
  96   2.0000      -2.728350       -74.2422
  97   2.0000      -1.349089       -36.7106
  98   2.0000      -1.287646       -35.0386
  99   2.0000      -1.262005       -34.3409
 100   2.0000      -1.168874       -31.8067
 101   2.0000      -1.137007       -30.9395
 102   2.0000      -1.107295       -30.1310
 103   2.0000      -1.106432       -30.1075
 104   2.0000      -1.098250       -29.8849
 105   2.0000      -1.068256       -29.0687
 106   2.0000      -1.020675       -27.7740
 107   2.0000      -1.012532       -27.5524
 108   2.0000      -1.010269       -27.4908
 109   2.0000      -0.998887       -27.1811
 110   2.0000      -0.989935       -26.9375
 111   2.0000      -0.986798       -26.8521
 112   2.0000      -0.986335       -26.8395
 113   2.0000      -0.981459       -26.7069
 114   2.0000      -0.973874       -26.5005
 115   2.0000      -0.970535       -26.4096
 116   2.0000      -0.956691       -26.0329
 117   2.0000      -0.942991       -25.6601
 118   2.0000      -0.940733       -25.5987
 119   2.0000      -0.912502       -24.8304
 120   2.0000      -0.908410       -24.7191
 121   2.0000      -0.906243       -24.6601
 122   2.0000      -0.904269       -24.6064
 123   2.0000      -0.895308       -24.3626
 124   2.0000      -0.885933       -24.1074
 125   2.0000      -0.883911       -24.0525
 126   2.0000      -0.880233       -23.9524
 127   2.0000      -0.875261       -23.8171
 128   2.0000      -0.870695       -23.6928
 129   2.0000      -0.865841       -23.5607
 130   2.0000      -0.864492       -23.5240
 131   2.0000      -0.855259       -23.2728
 132   2.0000      -0.840869       -22.8812
 133   2.0000      -0.835531       -22.7360
 134   2.0000      -0.832610       -22.6565
 135   2.0000      -0.827778       -22.5250
 136   2.0000      -0.817488       -22.2450
 137   2.0000      -0.809024       -22.0147
 138   2.0000      -0.803518       -21.8648
 139   2.0000      -0.781627       -21.2692
 140   2.0000      -0.773666       -21.0525
 141   2.0000      -0.759465       -20.6661
 142   2.0000      -0.747636       -20.3442
 143   2.0000      -0.742532       -20.2053
 144   2.0000      -0.738495       -20.0955
 145   2.0000      -0.731455       -19.9039
 146   2.0000      -0.713584       -19.4176
 147   2.0000      -0.710733       -19.3400
 148   2.0000      -0.706417       -19.2226
 149   2.0000      -0.701955       -19.1012
 150   2.0000      -0.696815       -18.9613
 151   2.0000      -0.692180       -18.8352
 152   2.0000      -0.689201       -18.7541
 153   2.0000      -0.686409       -18.6781
 154   2.0000      -0.682242       -18.5647
 155   2.0000      -0.670699       -18.2506
 156   2.0000      -0.668851       -18.2004
 157   2.0000      -0.662241       -18.0205
 158   2.0000      -0.661322       -17.9955
 159   2.0000      -0.659283       -17.9400
 160   2.0000      -0.656898       -17.8751
 161   2.0000      -0.656059       -17.8523
 162   2.0000      -0.648247       -17.6397
 163   2.0000      -0.637669       -17.3519
 164   2.0000      -0.633336       -17.2340
 165   2.0000      -0.628469       -17.1015
 166   2.0000      -0.624247       -16.9866
 167   2.0000      -0.619623       -16.8608
 168   2.0000      -0.616879       -16.7861
 169   2.0000      -0.616280       -16.7698
 170   2.0000      -0.612077       -16.6555
 171   2.0000      -0.601684       -16.3727
 172   2.0000      -0.598900       -16.2969
 173   2.0000      -0.596265       -16.2252
 174   2.0000      -0.592495       -16.1226
 175   2.0000      -0.590496       -16.0682
 176   2.0000      -0.584844       -15.9144
 177   2.0000      -0.577229       -15.7072
 178   2.0000      -0.573901       -15.6166
 179   2.0000      -0.570831       -15.5331
 180   2.0000      -0.566637       -15.4190
 181   2.0000      -0.561514       -15.2796
 182   2.0000      -0.553740       -15.0680
 183   2.0000      -0.552249       -15.0275
 184   2.0000      -0.550027       -14.9670
 185   2.0000      -0.545227       -14.8364
 186   2.0000      -0.544550       -14.8180
 187   2.0000      -0.543429       -14.7874
 188   2.0000      -0.539792       -14.6885
 189   2.0000      -0.538883       -14.6637
 190   2.0000      -0.538695       -14.6586
 191   2.0000      -0.533409       -14.5148
 192   2.0000      -0.531827       -14.4717
 193   2.0000      -0.528921       -14.3927
 194   2.0000      -0.524728       -14.2786
 195   2.0000      -0.523338       -14.2408
 196   2.0000      -0.517312       -14.0768
 197   2.0000      -0.514994       -14.0137
 198   2.0000      -0.512571       -13.9478
 199   2.0000      -0.509090       -13.8531
 200   2.0000      -0.507847       -13.8192
 201   2.0000      -0.507736       -13.8162
 202   2.0000      -0.505264       -13.7489
 203   2.0000      -0.503036       -13.6883
 204   2.0000      -0.501790       -13.6544
 205   2.0000      -0.497279       -13.5317
 206   2.0000      -0.494797       -13.4641
 207   2.0000      -0.492732       -13.4079
 208   2.0000      -0.490407       -13.3446
 209   2.0000      -0.489586       -13.3223
 210   2.0000      -0.487144       -13.2559
 211   2.0000      -0.483839       -13.1659
 212   2.0000      -0.482440       -13.1279
 213   2.0000      -0.477395       -12.9906
 214   2.0000      -0.473307       -12.8793
 215   2.0000      -0.469760       -12.7828
 216   2.0000      -0.468275       -12.7424
 217   2.0000      -0.463544       -12.6137
 218   2.0000      -0.461476       -12.5574
 219   2.0000      -0.459968       -12.5164
 220   2.0000      -0.454888       -12.3781
 221   2.0000      -0.447367       -12.1735
 222   2.0000      -0.446461       -12.1488
 223   2.0000      -0.445260       -12.1161
 224   2.0000      -0.444529       -12.0962
 225   2.0000      -0.441068       -12.0021
 226   2.0000      -0.439401       -11.9567
 227   2.0000      -0.437397       -11.9022
 228   2.0000      -0.436709       -11.8835
 229   2.0000      -0.434432       -11.8215
 230   2.0000      -0.428468       -11.6592
 231   2.0000      -0.425385       -11.5753
 232   2.0000      -0.423946       -11.5361
 233   2.0000      -0.422819       -11.5055
 234   2.0000      -0.419598       -11.4178
 235   2.0000      -0.419221       -11.4076
 236   2.0000      -0.416852       -11.3431
 237   2.0000      -0.416419       -11.3313
 238   2.0000      -0.414002       -11.2656
 239   2.0000      -0.408525       -11.1165
 240   2.0000      -0.408129       -11.1058
 241   2.0000      -0.405490       -11.0339
 242   2.0000      -0.402528       -10.9533
 243   2.0000      -0.400949       -10.9104
 244   2.0000      -0.398635       -10.8474
 245   2.0000      -0.395770       -10.7694
 246   2.0000      -0.390813       -10.6346
 247   2.0000      -0.385045       -10.4776
 248   2.0000      -0.383049       -10.4233
 249   2.0000      -0.374308       -10.1854
 250   2.0000      -0.371735       -10.1154
 251   2.0000      -0.366699        -9.9784
 252   2.0000      -0.361542        -9.8380
 253   2.0000      -0.352876        -9.6022
 254   2.0000      -0.349532        -9.5112
 255   2.0000      -0.349009        -9.4970
 256   2.0000      -0.339663        -9.2427
 257   2.0000      -0.328608        -8.9419
 258   2.0000      -0.316452        -8.6111
 259   2.0000      -0.315437        -8.5835
 260   2.0000      -0.310465        -8.4482
 261   2.0000      -0.305115        -8.3026
 262   2.0000      -0.293238        -7.9794
 263   2.0000      -0.291175        -7.9233
 264   2.0000      -0.287701        -7.8287
 265   2.0000      -0.276636        -7.5276
 266   2.0000      -0.249811        -6.7977
 267   2.0000      -0.226812        -6.1719
 268   0.0000      -0.101513        -2.7623
 269   0.0000      -0.088109        -2.3976
 270   0.0000      -0.068863        -1.8739
 271   0.0000      -0.064243        -1.7481
 272   0.0000      -0.047663        -1.2970

MULLIKEN ATOMIC CHARGES
-----------------------
   0 C :    0.322043
   1 C :   -0.370090
   2 C :   -0.185159
   3 N :    0.143669
   4 C :   -0.176824
   5 N :    0.135920
   6 C :    0.013838
   7 C :   -0.012495
   8 C :   -0.073065
   9 C :    0.116573
  10 C :   -0.094170
  11 C :   -0.018469
  12 S :    0.186870
  13 C :   -0.123118
  14 C :    0.038502
  15 Br:    0.021651
  16 C :    0.169209
  17 O :   -0.221087
  18 C :   -0.084296
  19 C :    0.012183
  20 C :    0.026374
  21 N :   -0.012196
  22 C :    0.132604
  23 C :   -0.161018
  24 C :    0.104151
  25 N :   -0.043931
  26 C :    0.141925
  27 C :   -0.159482
  28 C :    0.029705
  29 C :   -0.056562
  30 C :    0.019630
  31 O :   -0.165651
  32 C :    0.088038
  33 C :    0.123316
  34 N :    0.286319
  35 O :   -0.221339
  36 O :   -0.262735
  37 C :    0.058556
  38 N :   -0.011067
  39 C :    0.059628
  40 C :   -0.065246
  41 C :    0.056272
  42 C :    0.021375
  43 C :   -0.012457
  44 S :    0.094673
  45 C :   -0.068743
  46 C :    0.042662
  47 C :    0.059992
  48 C :   -0.046654
  49 S :    0.113379
  50 C :    0.004224
  51 C :    0.024424
  52 C :   -0.151307
  53 C :    0.134578
  54 O :   -0.154312
  55 C :    0.018067
  56 C :   -0.089246
  57 C :    0.097576
  58 C :    0.109900
  59 C :   -0.095262
  60 C :    0.305080
  61 C :   -0.035901
  62 C :   -0.010956
  63 F :   -0.198152
  64 C :   -0.102735
  65 C :    0.047374
  66 C :    0.282313
  67 C :   -0.366822
  68 C :   -0.210659
  69 N :    0.155834
  70 C :   -0.164652
  71 N :    0.118371
  72 H :   -0.013020
  73 H :   -0.006526
  74 H :   -0.005124
  75 H :   -0.012942
  76 H :    0.144567
  77 H :   -0.023792
  78 H :    0.126574
  79 H :   -0.008028
  80 H :    0.001689
  81 H :   -0.024307
  82 H :    0.038262
  83 H :    0.160308
  84 H :    0.019894
  85 H :   -0.005243
  86 H :   -0.003668
  87 H :   -0.010863
  88 H :   -0.007688
  89 H :   -0.003764
  90 H :    0.022391
  91 H :   -0.018480
  92 H :   -0.021976
  93 H :   -0.004207
  94 H :   -0.014020
  95 H :   -0.020978
Sum of atomic charges:   -0.0000000

LOEWDIN ATOMIC CHARGES
----------------------
   0 C :    0.078666
   1 C :   -0.152056
   2 C :   -0.018148
   3 N :   -0.061504
   4 C :   -0.021825
   5 N :   -0.061809
   6 C :   -0.018534
   7 C :   -0.049841
   8 C :    0.020477
   9 C :   -0.035138
  10 C :   -0.144219
  11 C :   -0.010330
  12 S :    0.433164
  13 C :   -0.272759
  14 C :   -0.070753
  15 Br:    0.135052
  16 C :    0.097700
  17 O :   -0.170208
  18 C :   -0.125836
  19 C :    0.058315
  20 C :   -0.014087
  21 N :    0.084500
  22 C :    0.010901
  23 C :   -0.085809
  24 C :    0.021623
  25 N :    0.061403
  26 C :   -0.017687
  27 C :   -0.047623
  28 C :   -0.018363
  29 C :   -0.059399
  30 C :    0.000166
  31 O :    0.047379
  32 C :    0.097529
  33 C :   -0.096402
  34 N :    0.293952
  35 O :   -0.184424
  36 O :   -0.213694
  37 C :   -0.007240
  38 N :    0.060319
  39 C :    0.029157
  40 C :   -0.200692
  41 C :   -0.004815
  42 C :   -0.049715
  43 C :   -0.131235
  44 S :    0.392457
  45 C :   -0.206783
  46 C :   -0.017772
  47 C :   -0.035340
  48 C :   -0.113364
  49 S :    0.470032
  50 C :   -0.075077
  51 C :    0.036317
  52 C :   -0.115165
  53 C :    0.081826
  54 O :   -0.155282
  55 C :   -0.057602
  56 C :    0.028445
  57 C :   -0.023137
  58 C :    0.003791
  59 C :   -0.045790
  60 C :    0.090290
  61 C :   -0.045216
  62 C :    0.002923
  63 F :   -0.071702
  64 C :   -0.003641
  65 C :   -0.010106
  66 C :    0.034789
  67 C :   -0.173163
  68 C :   -0.026798
  69 N :   -0.065660
  70 C :   -0.019036
  71 N :   -0.086916
  72 H :    0.039553
  73 H :    0.041168
  74 H :    0.038096
  75 H :    0.050983
  76 H :    0.068353
  77 H :    0.030315
  78 H :    0.088086
  79 H :    0.034981
  80 H :    0.040978
  81 H :    0.026553
  82 H :    0.043238
  83 H :    0.077073
  84 H :    0.034806
  85 H :    0.036004
  86 H :    0.036341
  87 H :    0.033861
  88 H :    0.036429
  89 H :    0.039633
  90 H :    0.044861
  91 H :    0.036828
  92 H :    0.036101
  93 H :    0.038678
  94 H :    0.033620
  95 H :    0.033981

  Mayer bond orders larger than 0.100000
B(  0-C ,  1-C ) :   1.5995 B(  0-C ,  6-C ) :   0.9890 B(  0-C , 18-C ) :   1.1128
B(  1-C ,  2-C ) :   1.1495 B(  1-C ,  4-C ) :   1.1433 B(  2-C ,  3-N ) :   2.9624
B(  4-C ,  5-N ) :   2.9525 B(  6-C ,  7-C ) :   1.2743 B(  6-C , 11-C ) :   1.4211
B(  7-C ,  8-C ) :   1.4231 B(  7-C , 16-C ) :   0.9769 B(  8-C ,  9-C ) :   1.2413
B(  8-C , 72-H ) :   1.0162 B(  9-C , 10-C ) :   1.3104 B(  9-C , 14-C ) :   1.1627
B( 10-C , 11-C ) :   1.3221 B( 10-C , 12-S ) :   1.0878 B( 11-C , 73-H ) :   0.9779
B( 12-S , 13-C ) :   1.0862 B( 13-C , 14-C ) :   1.6200 B( 13-C , 15-Br) :   1.0178
B( 14-C , 74-H ) :   0.9995 B( 16-C , 17-O ) :   2.0454 B( 16-C , 18-C ) :   0.9894
B( 17-O , 76-H ) :   0.1427 B( 18-C , 19-C ) :   1.4003 B( 19-C , 20-C ) :   1.3096
B( 19-C , 75-H ) :   0.9217 B( 20-C , 21-N ) :   1.2145 B( 20-C , 27-C ) :   1.2314
B( 21-N , 22-C ) :   1.2380 B( 21-N , 76-H ) :   0.8569 B( 22-C , 23-C ) :   1.2364
B( 22-C , 26-C ) :   1.2428 B( 23-C , 24-C ) :   1.3612 B( 23-C , 77-H ) :   1.0440
B( 24-C , 25-N ) :   1.2029 B( 24-C , 28-C ) :   1.1341 B( 25-N , 26-C ) :   1.1399
B( 25-N , 78-H ) :   0.9322 B( 26-C , 27-C ) :   1.3213 B( 27-C , 79-H ) :   1.0452
B( 28-C , 29-C ) :   1.6129 B( 28-C , 80-H ) :   0.9698 B( 29-C , 30-C ) :   1.1873
B( 29-C , 81-H ) :   0.9538 B( 30-C , 31-O ) :   1.1009 B( 30-C , 37-C ) :   1.3669
B( 31-O , 32-C ) :   1.2188 B( 32-C , 33-C ) :   1.4349 B( 32-C , 82-H ) :   1.0150
B( 33-C , 34-N ) :   0.9455 B( 33-C , 37-C ) :   1.2410 B( 34-N , 35-O ) :   1.5620
B( 34-N , 36-O ) :   1.4637 B( 35-O , 36-O ) :   0.2624 B( 36-O , 83-H ) :   0.1035
B( 37-C , 38-N ) :   1.2130 B( 38-N , 39-C ) :   1.2080 B( 38-N , 83-H ) :   0.8525
B( 39-C , 40-C ) :   1.5581 B( 39-C , 84-H ) :   0.9557 B( 40-C , 41-C ) :   1.1662
B( 40-C , 44-S ) :   1.0203 B( 41-C , 42-C ) :   1.5887 B( 41-C , 85-H ) :   0.9943
B( 42-C , 43-C ) :   1.1999 B( 42-C , 86-H ) :   0.9951 B( 43-C , 44-S ) :   1.0998
B( 43-C , 45-C ) :   1.4623 B( 45-C , 46-C ) :   1.2099 B( 45-C , 49-S ) :   1.0377
B( 46-C , 47-C ) :   1.5616 B( 46-C , 87-H ) :   0.9917 B( 47-C , 48-C ) :   1.1787
B( 47-C , 88-H ) :   0.9963 B( 48-C , 49-S ) :   1.1291 B( 48-C , 50-C ) :   1.4198
B( 50-C , 51-C ) :   1.3561 B( 50-C , 89-H ) :   0.9557 B( 51-C , 52-C ) :   1.4431
B( 51-C , 90-H ) :   0.9300 B( 52-C , 53-C ) :   0.9622 B( 52-C , 66-C ) :   1.1505
B( 53-C , 54-O ) :   2.2530 B( 53-C , 55-C ) :   0.9134 B( 55-C , 56-C ) :   1.4832
B( 55-C , 65-C ) :   1.2165 B( 56-C , 57-C ) :   1.1769 B( 56-C , 91-H ) :   1.0151
B( 57-C , 58-C ) :   1.2645 B( 57-C , 62-C ) :   1.2417 B( 58-C , 59-C ) :   1.2097
B( 58-C , 64-C ) :   1.1886 B( 59-C , 60-C ) :   1.4367 B( 59-C , 92-H ) :   1.0041
B( 60-C , 61-C ) :   1.2624 B( 60-C , 63-F ) :   1.0797 B( 61-C , 62-C ) :   1.4524
B( 61-C , 93-H ) :   0.9930 B( 62-C , 94-H ) :   0.9962 B( 64-C , 65-C ) :   1.4793
B( 64-C , 95-H ) :   0.9926 B( 65-C , 66-C ) :   0.9926 B( 66-C , 67-C ) :   1.5308
B( 67-C , 68-C ) :   1.1716 B( 67-C , 70-C ) :   1.1518 B( 68-C , 69-N ) :   3.0021
B( 70-C , 71-N ) :   2.9529

-----------------------------------------------------------------------------
         ABSORPTION SPECTRUM VIA TRANSITION ELECTRIC DIPOLE MOMENTS
-----------------------------------------------------------------------------
State   Energy  Wavelength   fosc         T2         TX        TY        TZ
        (cm-1)    (nm)                  (au**2)     (au)      (au)      (au)
-----------------------------------------------------------------------------
   0   12330.2    811.0   0.980583382  26.18124  -0.54842  -0.24441  -5.08141
   1   17547.1    569.9   1.165341990  21.86368  -2.27749   2.63016  -3.12394
   2   18993.7    526.5   0.214910332   3.72498   1.68496  -0.41460   0.84499
   3   20038.9    499.0   0.090636097   1.48903   0.42328  -0.83009   0.78792
   4   21932.6    455.9   0.052201841   0.78356   0.41792   0.71558   0.31120
   5   22376.8    446.9   0.277463601   4.08211   1.07781   1.66521  -0.38408
   6   23454.8    426.4   0.197489820   2.77197  -0.30997   0.95194  -1.33030
   7   23964.5    417.3   0.122212796   1.67889   0.40656   0.06108   1.22877
   8   25476.3    392.5   0.025879710   0.33442   0.07370  -0.20481   0.53577
   9   25828.0    387.2   0.013089047   0.16684  -0.21160  -0.34168   0.07295
  10   26542.1    376.8   0.017231019   0.21372  -0.11849  -0.36118   0.26312
  11   27399.6    365.0   0.528910359   6.35497  -1.84378  -1.51772  -0.80745
  12   28049.0    356.5   0.076171202   0.89402  -0.52244  -0.67759  -0.40242
  13   28447.0    351.5   0.154322019   1.78594   0.42588  -0.58426   1.12393
  14   28798.9    347.2   0.133052371   1.52097  -0.74344  -0.55098  -0.81529
  15   28863.5    346.5   0.009862676   0.11249  -0.19872  -0.26758  -0.03744
  16   29895.7    334.5   0.020482646   0.22556   0.35968   0.10696   0.29111
  17   30043.9    332.8   0.103272179   1.13163  -0.66274   0.02498  -0.83173
  18   30516.8    327.7   0.010255835   0.11064  -0.10174  -0.13775  -0.28515
  19   31008.4    322.5   0.065612890   0.69660   0.14046   0.49631  -0.65617
  20   31349.5    319.0   0.058822304   0.61771   0.70154   0.33378   0.11895
  21   31671.6    315.7   0.033433229   0.34752  -0.04721  -0.36444   0.46096
  22   32076.0    311.8   0.051472888   0.52829  -0.52786  -0.42331  -0.26546
  23   32415.8    308.5   0.159185796   1.61668   0.50056   1.13617  -0.27430
  24   32651.1    306.3   0.006408931   0.06462   0.04541  -0.22157   0.11605
  25   32942.1    303.6   0.336831618   3.36618  -0.75315  -1.67082   0.08554
  26   33243.9    300.8   0.127061902   1.25829  -0.17519   0.48369  -0.99681
  27   33368.7    299.7   0.472856850   4.66515  -1.27196  -1.14347  -1.31900
  28   33531.9    298.2   0.266631448   2.61775  -0.91327  -1.32966  -0.12530
  29   33622.4    297.4   0.035402826   0.34664   0.12633  -0.07421   0.57024
  30   33913.1    294.9   0.064760366   0.62866   0.43527   0.65381  -0.10831
  31   33998.2    294.1   0.012178501   0.11793  -0.29636  -0.10099   0.14106
  32   34285.3    291.7   0.140310338   1.34728  -0.56055  -0.88443   0.50085
  33   34848.2    287.0   0.079829959   0.75416   0.45811   0.73133  -0.09717
  34   34925.4    286.3   0.010416867   0.09819  -0.13247  -0.27742   0.06065
  35   35239.4    283.8   0.093970776   0.87789  -0.37624  -0.82027   0.25197
  36   35609.3    280.8   0.012453449   0.11513  -0.14912   0.11776  -0.28112
  37   36028.8    277.6   0.047796530   0.43674   0.43985   0.47383   0.13697
  38   36162.5    276.5   0.023036091   0.20971   0.19995   0.25508  -0.32352
  39   36581.1    273.4   0.002510610   0.02259  -0.03967  -0.11144  -0.09274
  40   36663.8    272.7   0.016362349   0.14692  -0.07537   0.06060   0.37090
  41   36922.4    270.8   0.084330876   0.75192  -0.44338  -0.73803   0.10319
  42   37264.3    268.4   0.139216727   1.22991   0.21638  -0.55840   0.93343
  43   37344.1    267.8   0.051549569   0.45444   0.46001   0.42002   0.25773
  44   37540.6    266.4   0.118494818   1.03914  -0.18288   0.52047  -0.85721
  45   37971.8    263.4   0.109407253   0.94855  -0.35573  -0.39028   0.81835
  46   38287.1    261.2   0.181583159   1.56134   0.16992   1.22637  -0.16879
  47   38481.1    259.9   0.104660687   0.89539  -0.22984  -0.84100   0.36781
  48   38633.9    258.8   0.029612203   0.25233  -0.10382  -0.05111   0.48882
  49   39178.0    255.2   0.001190020   0.01000   0.02044  -0.05172   0.08311
  50   39578.2    252.7   0.010403959   0.08654  -0.18276   0.01331  -0.23013
  51   39810.4    251.2   0.006632977   0.05485  -0.06366  -0.20692   0.08935
  52   39942.4    250.4   0.019033434   0.15688   0.06734  -0.15823   0.35680

FINAL SINGLE POINT ENERGY     -6750.419857293481

DIPOLE MOMENT
-------------
                                X             Y             Z
Electronic contribution:     93.06051     -33.73771     162.10252
Nuclear contribution   :    -93.68444      37.42603    -159.46974
                        -----------------------------------------
Total Dipole Moment    :     -0.62393       3.68832       2.63278
                        -----------------------------------------
Magnitude (a.u.)       :      4.57433
Magnitude (Debye)      :     11.62703

Rotational constants in cm-1:     0.001548     0.000195     0.000184
Rotational constants in MHz :    46.410438     5.845231     5.502112

                             ****ORCA TERMINATED NORMALLY****
TOTAL RUN TIME: 0 days 0 hours 9 minutes 59 seconds 663 msec
