                         Program Version 4.2.0 -  RELEASE  -
|  1> # ORCA input file
|  2> # SCF done       -199.940198242503          0.000401892062
|  3> ! CAM-B3LYP def2-SVP def2/J RIJCOSX Grid4 TightSCF
|  4> %maxcore 5000
|  5> %tddft
|  6>     Mode sTDDFT
|  7>     Ethresh 5.0
|  8>     maxcore 5000
|  9> end
| 10>
| 11> %pal
| 12>   nprocs 6
| 13>   end
| 14> * xyz 0 1
| 15>    C       -2.63875         0.26279         4.51880
| 16>    C       -1.31983         0.19434         4.13604
| 17>    C       -0.45838        -0.87448         4.45597
| 18>    N        0.29651        -1.71055         4.68030
| 19>    C       -0.62834         1.15842         3.37641
| 20>    N        0.00788         1.89089         2.75887
| 21>    C       -3.33891        -0.75883         5.29362
| 22>    C       -4.67581        -0.33716         5.49542
| 23>    C       -5.59652        -1.08781         6.18308
| 24>    C       -5.17868        -2.32056         6.69709
| 25>    C       -3.84209        -2.73443         6.49180
| 26>    C       -2.91011        -1.97206         5.79699
| 27>    S       -3.53787        -4.28977         7.20489
| 28>    C       -5.18872        -4.36134         7.76090
| 29>    C       -5.93097        -3.27785         7.43141
| 30>   Br       -5.77792        -5.86136         8.72096
| 31>    C       -4.86816         0.97677         4.85219
| 32>    O       -5.89761         1.62930         4.84732
| 33>    C       -3.58421         1.32032         4.23745
| 34>    C       -3.31297         2.45035         3.49871
| 35>    C       -4.13226         3.51673         3.12470
| 36>    S       -5.81019         3.72741         3.54272
| 37>    C       -5.89438         5.21165         2.63727
| 38>    C       -4.65402         5.54180         2.06359
| 39>    C       -3.67979         4.59059         2.32692
| 40>    C       -2.27527         4.70639         1.82251
| 41>    C       -2.16018         5.77723         0.74197
| 42>    C       -2.86352         7.06366         1.19329
| 43>    N       -2.66086         8.20508         0.31831
| 44>    C       -4.36733         6.79376         1.29787
| 45>    C       -7.14410         5.85823         2.58983
| 46>    C       -7.52580         6.86646         1.74512
| 47>    C       -8.79377         7.45556         1.75658
| 48>    C       -9.17977         8.42424         0.85601
| 49>    C      -10.42060         9.09575         0.77965
| 50>    C      -10.50821        10.00099        -0.23816
| 51>    C       -9.34111        10.08717        -1.02509
| 52>    S       -8.11985         8.99271        -0.42250
| 53>    C       -9.10177        10.87560        -2.13695
| 54>    C       -9.96094        11.79349        -2.77622
| 55>    C       -9.40761        12.39380        -3.86676
| 56>    C       -8.08545        11.97283        -4.16744
| 57>    S       -7.56640        10.80348        -2.97013
| 58>    C       -7.31231        12.49292        -5.17692
| 59>    C       -6.02404        12.13356        -5.61934
| 60>    S       -5.07785        13.39084        -6.37484
| 61>    C       -3.72813        12.31234        -6.63707
| 62>    C       -4.03457        11.02936        -6.16421
| 63>    C       -5.32058        10.92525        -5.62617
| 64>    C       -5.90259         9.59670        -5.26409
| 65>    C       -5.16363         8.47999        -5.99500
| 66>    C       -3.66856         8.57918        -5.66417
| 67>    N       -2.85365         7.47180        -6.12819
| 68>    C       -3.11019         9.86692        -6.27372
| 69>    C       -2.61633        12.83897        -7.31581
| 70>    C       -1.46083        12.20391        -7.68685
| 71>    C       -0.47747        12.86656        -8.43396
| 72>    C        0.68704        12.35736        -8.95337
| 73>    C        1.20077        11.01963        -9.09128
| 74>    C        0.49210         9.84357        -9.18566
| 75>    C        1.08638         8.57896        -9.37725
| 76>    N        1.50130         7.51771        -9.52114
| 77>    C       -0.90654         9.72362        -9.21526
| 78>    N       -2.03928         9.53146        -9.27977
| 79>    C        2.64013        11.12921        -9.33521
| 80>    C        2.96362        12.49137        -9.55186
| 81>    C        1.74329        13.30651        -9.38276
| 82>    O        1.62917        14.50437        -9.52518
| 83>    C        4.23724        12.91244        -9.84365
| 84>    C        5.24522        11.94397        -9.91246
| 85>    C        4.91609        10.58911        -9.67664
| 86>    C        3.62451        10.16201        -9.38997
| 87>    S        6.31265         9.56175        -9.79530
| 88>    C        7.30540        10.94805       -10.15994
| 89>    C        6.62883        12.12031       -10.19005
| 90>   Br        9.14189        10.71614       -10.46503
| 91>    H       -6.60781        -0.73776         6.31859
| 92>    H       -1.90428        -2.33449         5.66754
| 93>    H       -6.96632        -3.15734         7.69319
| 94>    H       -2.30020         2.53607         3.13056
| 95>    H       -1.92833         3.75036         1.42426
| 96>    H       -1.61890         4.96185         2.66089
| 97>    H       -2.62329         5.42259        -0.18284
| 98>    H       -1.10561         5.97402         0.53737
| 99>    H       -2.48226         7.34747         2.18148
|100>    H       -2.93988         7.97479        -0.63030
|101>    H       -1.68169         8.46683         0.29568
|102>    H       -4.77240         6.70760         0.28382
|103>    H       -4.84800         7.64843         1.77620
|104>    H       -7.88702         5.46581         3.27413
|105>    H       -6.84072         7.22891         0.99457
|106>    H       -9.51362         7.14507         2.50190
|107>    H      -11.21222         8.88982         1.47832
|108>    H      -11.37734        10.59996        -0.44293
|109>    H      -10.95657        11.98563        -2.41903
|110>    H       -9.91078        13.12105        -4.47915
|111>    H       -7.73021        13.36631        -5.66496
|112>    H       -6.96613         9.58271        -5.51152
|113>    H       -5.80994         9.42855        -4.18730
|114>    H       -5.30486         8.57367        -7.07427
|115>    H       -5.55814         7.51159        -5.67920
|116>    H       -3.55999         8.61373        -4.57181
|117>    H       -2.87850         7.41399        -7.14141
|118>    H       -3.19713         6.59265        -5.75779
|119>    H       -2.91182         9.68140        -7.33808
|120>    H       -2.15512        10.09678        -5.79705
|121>    H       -2.72330        13.87489        -7.61865
|122>    H       -1.28225        11.18317        -7.40312
|123>    H       -0.59762        13.93622        -8.57697
|124>    H        4.45167        13.95606       -10.01228
|125>    H        3.42684         9.11827        -9.21166
|126>    H        7.08426        13.07114       -10.39860
|127> *
|128>
|129>                          ****END OF INPUT****

CARTESIAN COORDINATES (ANGSTROEM)
---------------------------------
  C     -2.638750    0.262790    4.518800
  C     -1.319830    0.194340    4.136040
  C     -0.458380   -0.874480    4.455970
  N      0.296510   -1.710550    4.680300
  C     -0.628340    1.158420    3.376410
  N      0.007880    1.890890    2.758870
  C     -3.338910   -0.758830    5.293620
  C     -4.675810   -0.337160    5.495420
  C     -5.596520   -1.087810    6.183080
  C     -5.178680   -2.320560    6.697090
  C     -3.842090   -2.734430    6.491800
  C     -2.910110   -1.972060    5.796990
  S     -3.537870   -4.289770    7.204890
  C     -5.188720   -4.361340    7.760900
  C     -5.930970   -3.277850    7.431410
  Br    -5.777920   -5.861360    8.720960
  C     -4.868160    0.976770    4.852190
  O     -5.897610    1.629300    4.847320
  C     -3.584210    1.320320    4.237450
  C     -3.312970    2.450350    3.498710
  C     -4.132260    3.516730    3.124700
  S     -5.810190    3.727410    3.542720
  C     -5.894380    5.211650    2.637270
  C     -4.654020    5.541800    2.063590
  C     -3.679790    4.590590    2.326920
  C     -2.275270    4.706390    1.822510
  C     -2.160180    5.777230    0.741970
  C     -2.863520    7.063660    1.193290
  N     -2.660860    8.205080    0.318310
  C     -4.367330    6.793760    1.297870
  C     -7.144100    5.858230    2.589830
  C     -7.525800    6.866460    1.745120
  C     -8.793770    7.455560    1.756580
  C     -9.179770    8.424240    0.856010
  C    -10.420600    9.095750    0.779650
  C    -10.508210   10.000990   -0.238160
  C     -9.341110   10.087170   -1.025090
  S     -8.119850    8.992710   -0.422500
  C     -9.101770   10.875600   -2.136950
  C     -9.960940   11.793490   -2.776220
  C     -9.407610   12.393800   -3.866760
  C     -8.085450   11.972830   -4.167440
  S     -7.566400   10.803480   -2.970130
  C     -7.312310   12.492920   -5.176920
  C     -6.024040   12.133560   -5.619340
  S     -5.077850   13.390840   -6.374840
  C     -3.728130   12.312340   -6.637070
  C     -4.034570   11.029360   -6.164210
  C     -5.320580   10.925250   -5.626170
  C     -5.902590    9.596700   -5.264090
  C     -5.163630    8.479990   -5.995000
  C     -3.668560    8.579180   -5.664170
  N     -2.853650    7.471800   -6.128190
  C     -3.110190    9.866920   -6.273720
  C     -2.616330   12.838970   -7.315810
  C     -1.460830   12.203910   -7.686850
  C     -0.477470   12.866560   -8.433960
  C      0.687040   12.357360   -8.953370
  C      1.200770   11.019630   -9.091280
  C      0.492100    9.843570   -9.185660
  C      1.086380    8.578960   -9.377250
  N      1.501300    7.517710   -9.521140
  C     -0.906540    9.723620   -9.215260
  N     -2.039280    9.531460   -9.279770
  C      2.640130   11.129210   -9.335210
  C      2.963620   12.491370   -9.551860
  C      1.743290   13.306510   -9.382760
  O      1.629170   14.504370   -9.525180
  C      4.237240   12.912440   -9.843650
  C      5.245220   11.943970   -9.912460
  C      4.916090   10.589110   -9.676640
  C      3.624510   10.162010   -9.389970
  S      6.312650    9.561750   -9.795300
  C      7.305400   10.948050  -10.159940
  C      6.628830   12.120310  -10.190050
  Br     9.141890   10.716140  -10.465030
  H     -6.607810   -0.737760    6.318590
  H     -1.904280   -2.334490    5.667540
  H     -6.966320   -3.157340    7.693190
  H     -2.300200    2.536070    3.130560
  H     -1.928330    3.750360    1.424260
  H     -1.618900    4.961850    2.660890
  H     -2.623290    5.422590   -0.182840
  H     -1.105610    5.974020    0.537370
  H     -2.482260    7.347470    2.181480
  H     -2.939880    7.974790   -0.630300
  H     -1.681690    8.466830    0.295680
  H     -4.772400    6.707600    0.283820
  H     -4.848000    7.648430    1.776200
  H     -7.887020    5.465810    3.274130
  H     -6.840720    7.228910    0.994570
  H     -9.513620    7.145070    2.501900
  H    -11.212220    8.889820    1.478320
  H    -11.377340   10.599960   -0.442930
  H    -10.956570   11.985630   -2.419030
  H     -9.910780   13.121050   -4.479150
  H     -7.730210   13.366310   -5.664960
  H     -6.966130    9.582710   -5.511520
  H     -5.809940    9.428550   -4.187300
  H     -5.304860    8.573670   -7.074270
  H     -5.558140    7.511590   -5.679200
  H     -3.559990    8.613730   -4.571810
  H     -2.878500    7.413990   -7.141410
  H     -3.197130    6.592650   -5.757790
  H     -2.911820    9.681400   -7.338080
  H     -2.155120   10.096780   -5.797050
  H     -2.723300   13.874890   -7.618650
  H     -1.282250   11.183170   -7.403120
  H     -0.597620   13.936220   -8.576970
  H      4.451670   13.956060  -10.012280
  H      3.426840    9.118270   -9.211660
  H      7.084260   13.071140  -10.398600

 Total Charge           Charge          ....    0
 Multiplicity           Mult            ....    1
 Number of Electrons    NEL             ....  620
 Basis Dimension        Dim             .... 1304

ORBITAL ENERGIES
----------------

  NO   OCC          E(Eh)            E(eV)
   0   2.0000    -482.881775    -13139.8811
   1   2.0000    -482.880460    -13139.8453
   2   2.0000     -88.970518     -2421.0109
   3   2.0000     -88.969342     -2420.9789
   4   2.0000     -88.957659     -2420.6610
   5   2.0000     -88.957562     -2420.6583
   6   2.0000     -88.956764     -2420.6366
   7   2.0000     -88.953682     -2420.5527
   8   2.0000     -62.559498     -1702.3305
   9   2.0000     -62.558177     -1702.2946
  10   2.0000     -56.393443     -1534.5436
  11   2.0000     -56.392122     -1534.5077
  12   2.0000     -56.390738     -1534.4700
  13   2.0000     -56.390700     -1534.4690
  14   2.0000     -56.389418     -1534.4341
  15   2.0000     -56.389381     -1534.4331
  16   2.0000     -19.212115      -522.7882
  17   2.0000     -19.204599      -522.5837
  18   2.0000     -14.412916      -392.1954
  19   2.0000     -14.411182      -392.1482
  20   2.0000     -14.407762      -392.0551
  21   2.0000     -14.405856      -392.0033
  22   2.0000     -14.382191      -391.3593
  23   2.0000     -14.374935      -391.1619
  24   2.0000     -10.360437      -281.9218
  25   2.0000     -10.355048      -281.7752
  26   2.0000     -10.354126      -281.7501
  27   2.0000     -10.352724      -281.7119
  28   2.0000     -10.335052      -281.2311
  29   2.0000     -10.334008      -281.2026
  30   2.0000     -10.333570      -281.1907
  31   2.0000     -10.331290      -281.1287
  32   2.0000     -10.323943      -280.9288
  33   2.0000     -10.323512      -280.9171
  34   2.0000     -10.322654      -280.8937
  35   2.0000     -10.320086      -280.8238
  36   2.0000     -10.319462      -280.8068
  37   2.0000     -10.318663      -280.7851
  38   2.0000     -10.317851      -280.7630
  39   2.0000     -10.315669      -280.7036
  40   2.0000     -10.315014      -280.6858
  41   2.0000     -10.311754      -280.5971
  42   2.0000     -10.311411      -280.5878
  43   2.0000     -10.309904      -280.5468
  44   2.0000     -10.308351      -280.5045
  45   2.0000     -10.306608      -280.4571
  46   2.0000     -10.305934      -280.4387
  47   2.0000     -10.305405      -280.4243
  48   2.0000     -10.303338      -280.3681
  49   2.0000     -10.301739      -280.3246
  50   2.0000     -10.301040      -280.3056
  51   2.0000     -10.300961      -280.3034
  52   2.0000     -10.300814      -280.2994
  53   2.0000     -10.300255      -280.2842
  54   2.0000     -10.299839      -280.2729
  55   2.0000     -10.298925      -280.2480
  56   2.0000     -10.298035      -280.2238
  57   2.0000     -10.297530      -280.2100
  58   2.0000     -10.297114      -280.1987
  59   2.0000     -10.296551      -280.1834
  60   2.0000     -10.295113      -280.1443
  61   2.0000     -10.293867      -280.1104
  62   2.0000     -10.293584      -280.1027
  63   2.0000     -10.292214      -280.0654
  64   2.0000     -10.291473      -280.0452
  65   2.0000     -10.291443      -280.0444
  66   2.0000     -10.291111      -280.0354
  67   2.0000     -10.290822      -280.0275
  68   2.0000     -10.290615      -280.0219
  69   2.0000     -10.290432      -280.0169
  70   2.0000     -10.289388      -279.9885
  71   2.0000     -10.285944      -279.8948
  72   2.0000     -10.285481      -279.8822
  73   2.0000     -10.285177      -279.8739
  74   2.0000     -10.284265      -279.8491
  75   2.0000     -10.283444      -279.8267
  76   2.0000     -10.281709      -279.7795
  77   2.0000     -10.281183      -279.7652
  78   2.0000     -10.273597      -279.5588
  79   2.0000     -10.271171      -279.4928
  80   2.0000     -10.270696      -279.4799
  81   2.0000     -10.263069      -279.2723
  82   2.0000     -10.262722      -279.2629
  83   2.0000     -10.259070      -279.1635
  84   2.0000      -8.788931      -239.1590
  85   2.0000      -8.787602      -239.1228
  86   2.0000      -8.066539      -219.5017
  87   2.0000      -8.065360      -219.4696
  88   2.0000      -8.053660      -219.1512
  89   2.0000      -8.053595      -219.1495
  90   2.0000      -8.053056      -219.1348
  91   2.0000      -8.047459      -218.9825
  92   2.0000      -6.625219      -180.2814
  93   2.0000      -6.623880      -180.2449
  94   2.0000      -6.610658      -179.8851
  95   2.0000      -6.610487      -179.8805
  96   2.0000      -6.609334      -179.8491
  97   2.0000      -6.609163      -179.8445
  98   2.0000      -6.036210      -164.2536
  99   2.0000      -6.035032      -164.2216
 100   2.0000      -6.031961      -164.1380
 101   2.0000      -6.030789      -164.1061
 102   2.0000      -6.027764      -164.0238
 103   2.0000      -6.026584      -163.9917
 104   2.0000      -6.023365      -163.9041
 105   2.0000      -6.022844      -163.8899
 106   2.0000      -6.022739      -163.8871
 107   2.0000      -6.019211      -163.7911
 108   2.0000      -6.019017      -163.7858
 109   2.0000      -6.018793      -163.7797
 110   2.0000      -6.016797      -163.7254
 111   2.0000      -6.015589      -163.6925
 112   2.0000      -6.014506      -163.6630
 113   2.0000      -6.013982      -163.6488
 114   2.0000      -6.012392      -163.6055
 115   2.0000      -6.009641      -163.5306
 116   2.0000      -2.741073       -74.5884
 117   2.0000      -2.739764       -74.5528
 118   2.0000      -2.737008       -74.4778
 119   2.0000      -2.736885       -74.4744
 120   2.0000      -2.735664       -74.4412
 121   2.0000      -2.735537       -74.4377
 122   2.0000      -2.725309       -74.1594
 123   2.0000      -2.725295       -74.1590
 124   2.0000      -2.723974       -74.1231
 125   2.0000      -2.723971       -74.1230
 126   2.0000      -1.127037       -30.6682
 127   2.0000      -1.119173       -30.4542
 128   2.0000      -1.016758       -27.6674
 129   2.0000      -1.016242       -27.6533
 130   2.0000      -1.008977       -27.4557
 131   2.0000      -1.008189       -27.4342
 132   2.0000      -1.007554       -27.4169
 133   2.0000      -0.997940       -27.1553
 134   2.0000      -0.995276       -27.0828
 135   2.0000      -0.989371       -26.9222
 136   2.0000      -0.987708       -26.8769
 137   2.0000      -0.984938       -26.8015
 138   2.0000      -0.982588       -26.7376
 139   2.0000      -0.981932       -26.7197
 140   2.0000      -0.971735       -26.4423
 141   2.0000      -0.967077       -26.3155
 142   2.0000      -0.937486       -25.5103
 143   2.0000      -0.937072       -25.4990
 144   2.0000      -0.924457       -25.1558
 145   2.0000      -0.920391       -25.0451
 146   2.0000      -0.903893       -24.5962
 147   2.0000      -0.902542       -24.5594
 148   2.0000      -0.901866       -24.5410
 149   2.0000      -0.898741       -24.4560
 150   2.0000      -0.896235       -24.3878
 151   2.0000      -0.892387       -24.2831
 152   2.0000      -0.880033       -23.9469
 153   2.0000      -0.879094       -23.9214
 154   2.0000      -0.878091       -23.8941
 155   2.0000      -0.871090       -23.7036
 156   2.0000      -0.864000       -23.5106
 157   2.0000      -0.851950       -23.1827
 158   2.0000      -0.844314       -22.9750
 159   2.0000      -0.835903       -22.7461
 160   2.0000      -0.833807       -22.6890
 161   2.0000      -0.831672       -22.6309
 162   2.0000      -0.823921       -22.4200
 163   2.0000      -0.822575       -22.3834
 164   2.0000      -0.817585       -22.2476
 165   2.0000      -0.808714       -22.0062
 166   2.0000      -0.804893       -21.9022
 167   2.0000      -0.790840       -21.5199
 168   2.0000      -0.780900       -21.2494
 169   2.0000      -0.766830       -20.8665
 170   2.0000      -0.755777       -20.5657
 171   2.0000      -0.753719       -20.5097
 172   2.0000      -0.744064       -20.2470
 173   2.0000      -0.730906       -19.8890
 174   2.0000      -0.718566       -19.5532
 175   2.0000      -0.714468       -19.4417
 176   2.0000      -0.709991       -19.3198
 177   2.0000      -0.700685       -19.0666
 178   2.0000      -0.696829       -18.9617
 179   2.0000      -0.694599       -18.9010
 180   2.0000      -0.686814       -18.6892
 181   2.0000      -0.683233       -18.5917
 182   2.0000      -0.679164       -18.4810
 183   2.0000      -0.677370       -18.4322
 184   2.0000      -0.671877       -18.2827
 185   2.0000      -0.659118       -17.9355
 186   2.0000      -0.654005       -17.7964
 187   2.0000      -0.652250       -17.7486
 188   2.0000      -0.649420       -17.6716
 189   2.0000      -0.643291       -17.5048
 190   2.0000      -0.639679       -17.4066
 191   2.0000      -0.637645       -17.3512
 192   2.0000      -0.630071       -17.1451
 193   2.0000      -0.627419       -17.0729
 194   2.0000      -0.620771       -16.8920
 195   2.0000      -0.615981       -16.7617
 196   2.0000      -0.615843       -16.7579
 197   2.0000      -0.610912       -16.6238
 198   2.0000      -0.605106       -16.4658
 199   2.0000      -0.594002       -16.1636
 200   2.0000      -0.593509       -16.1502
 201   2.0000      -0.588561       -16.0156
 202   2.0000      -0.586525       -15.9601
 203   2.0000      -0.580418       -15.7940
 204   2.0000      -0.576215       -15.6796
 205   2.0000      -0.569934       -15.5087
 206   2.0000      -0.565217       -15.3803
 207   2.0000      -0.563084       -15.3223
 208   2.0000      -0.556689       -15.1483
 209   2.0000      -0.547266       -14.8919
 210   2.0000      -0.543328       -14.7847
 211   2.0000      -0.542750       -14.7690
 212   2.0000      -0.538747       -14.6600
 213   2.0000      -0.537858       -14.6358
 214   2.0000      -0.536885       -14.6094
 215   2.0000      -0.534254       -14.5378
 216   2.0000      -0.532641       -14.4939
 217   2.0000      -0.530970       -14.4484
 218   2.0000      -0.529614       -14.4115
 219   2.0000      -0.527348       -14.3499
 220   2.0000      -0.522114       -14.2074
 221   2.0000      -0.520008       -14.1501
 222   2.0000      -0.516455       -14.0535
 223   2.0000      -0.516245       -14.0478
 224   2.0000      -0.514201       -13.9921
 225   2.0000      -0.512250       -13.9390
 226   2.0000      -0.509755       -13.8711
 227   2.0000      -0.509093       -13.8531
 228   2.0000      -0.504957       -13.7406
 229   2.0000      -0.503953       -13.7133
 230   2.0000      -0.502503       -13.6738
 231   2.0000      -0.500595       -13.6219
 232   2.0000      -0.500378       -13.6160
 233   2.0000      -0.497770       -13.5450
 234   2.0000      -0.494807       -13.4644
 235   2.0000      -0.493260       -13.4223
 236   2.0000      -0.489359       -13.3161
 237   2.0000      -0.488596       -13.2954
 238   2.0000      -0.488264       -13.2863
 239   2.0000      -0.485068       -13.1994
 240   2.0000      -0.483335       -13.1522
 241   2.0000      -0.481969       -13.1150
 242   2.0000      -0.480553       -13.0765
 243   2.0000      -0.476405       -12.9636
 244   2.0000      -0.475651       -12.9431
 245   2.0000      -0.472623       -12.8607
 246   2.0000      -0.469311       -12.7706
 247   2.0000      -0.467519       -12.7218
 248   2.0000      -0.465331       -12.6623
 249   2.0000      -0.461482       -12.5576
 250   2.0000      -0.460279       -12.5248
 251   2.0000      -0.455575       -12.3968
 252   2.0000      -0.453059       -12.3284
 253   2.0000      -0.452613       -12.3162
 254   2.0000      -0.451279       -12.2799
 255   2.0000      -0.447819       -12.1858
 256   2.0000      -0.444346       -12.0913
 257   2.0000      -0.443896       -12.0790
 258   2.0000      -0.442883       -12.0515
 259   2.0000      -0.440025       -11.9737
 260   2.0000      -0.438871       -11.9423
 261   2.0000      -0.437473       -11.9043
 262   2.0000      -0.437168       -11.8959
 263   2.0000      -0.434974       -11.8363
 264   2.0000      -0.434089       -11.8122
 265   2.0000      -0.430856       -11.7242
 266   2.0000      -0.430417       -11.7122
 267   2.0000      -0.428277       -11.6540
 268   2.0000      -0.423244       -11.5171
 269   2.0000      -0.421714       -11.4754
 270   2.0000      -0.420684       -11.4474
 271   2.0000      -0.420345       -11.4382
 272   2.0000      -0.419400       -11.4124
 273   2.0000      -0.417596       -11.3634
 274   2.0000      -0.414681       -11.2840
 275   2.0000      -0.412302       -11.2193
 276   2.0000      -0.410983       -11.1834
 277   2.0000      -0.407568       -11.0905
 278   2.0000      -0.405435       -11.0325
 279   2.0000      -0.403090       -10.9686
 280   2.0000      -0.402386       -10.9495
 281   2.0000      -0.397871       -10.8266
 282   2.0000      -0.396634       -10.7929
 283   2.0000      -0.393873       -10.7178
 284   2.0000      -0.390545       -10.6273
 285   2.0000      -0.388054       -10.5595
 286   2.0000      -0.382027       -10.3955
 287   2.0000      -0.379941       -10.3387
 288   2.0000      -0.371992       -10.1224
 289   2.0000      -0.371255       -10.1024
 290   2.0000      -0.369959       -10.0671
 291   2.0000      -0.360361        -9.8059
 292   2.0000      -0.349213        -9.5026
 293   2.0000      -0.348277        -9.4771
 294   2.0000      -0.334670        -9.1068
 295   2.0000      -0.334206        -9.0942
 296   2.0000      -0.326884        -8.8950
 297   2.0000      -0.325626        -8.8607
 298   2.0000      -0.314950        -8.5702
 299   2.0000      -0.314776        -8.5655
 300   2.0000      -0.310477        -8.4485
 301   2.0000      -0.308560        -8.3964
 302   2.0000      -0.308065        -8.3829
 303   2.0000      -0.303766        -8.2659
 304   2.0000      -0.298309        -8.1174
 305   2.0000      -0.289257        -7.8711
 306   2.0000      -0.287846        -7.8327
 307   2.0000      -0.278871        -7.5885
 308   2.0000      -0.256948        -6.9919
 309   2.0000      -0.215263        -5.8576
 310   0.0000      -0.109975        -2.9926
 311   0.0000      -0.087409        -2.3785
 312   0.0000      -0.069846        -1.9006
 313   0.0000      -0.055684        -1.5152
 314   0.0000      -0.049063        -1.3351

MULLIKEN ATOMIC CHARGES
-----------------------
   0 C :    0.327997
   1 C :   -0.366694
   2 C :   -0.186945
   3 N :    0.140892
   4 C :   -0.176970
   5 N :    0.130941
   6 C :    0.007651
   7 C :   -0.006515
   8 C :   -0.077416
   9 C :    0.118091
  10 C :   -0.092730
  11 C :   -0.021400
  12 S :    0.183996
  13 C :   -0.123873
  14 C :    0.038852
  15 Br:    0.019128
  16 C :    0.149791
  17 O :   -0.179400
  18 C :   -0.090243
  19 C :   -0.055423
  20 C :   -0.080008
  21 S :    0.186466
  22 C :   -0.095426
  23 C :   -0.048178
  24 C :   -0.115351
  25 C :    0.123783
  26 C :    0.087952
  27 C :   -0.069945
  28 N :   -0.163959
  29 C :    0.151861
  30 C :    0.022272
  31 C :   -0.003645
  32 C :   -0.001963
  33 C :   -0.020056
  34 C :    0.038193
  35 C :    0.029906
  36 C :   -0.036598
  37 S :    0.064963
  38 C :   -0.051599
  39 C :    0.035780
  40 C :    0.029675
  41 C :   -0.021743
  42 S :    0.085009
  43 C :   -0.013884
  44 C :   -0.125467
  45 S :    0.123901
  46 C :   -0.124692
  47 C :   -0.033663
  48 C :   -0.100599
  49 C :    0.114977
  50 C :    0.071579
  51 C :   -0.047004
  52 N :   -0.169989
  53 C :    0.118035
  54 C :    0.060225
  55 C :   -0.010522
  56 C :    0.018111
  57 C :   -0.120261
  58 C :    0.306873
  59 C :   -0.353508
  60 C :   -0.188375
  61 N :    0.145880
  62 C :   -0.153548
  63 N :    0.124487
  64 C :   -0.001870
  65 C :   -0.001762
  66 C :    0.137460
  67 O :   -0.152285
  68 C :   -0.073582
  69 C :    0.114228
  70 C :   -0.089955
  71 C :   -0.021047
  72 S :    0.182136
  73 C :   -0.124648
  74 C :    0.038708
  75 Br:    0.019216
  76 H :   -0.013953
  77 H :   -0.008076
  78 H :   -0.005664
  79 H :   -0.010533
  80 H :    0.040997
  81 H :    0.027851
  82 H :   -0.010800
  83 H :   -0.003320
  84 H :   -0.001792
  85 H :    0.085714
  86 H :    0.091181
  87 H :    0.011767
  88 H :    0.027085
  89 H :   -0.013127
  90 H :    0.008137
  91 H :   -0.011115
  92 H :   -0.007042
  93 H :   -0.009013
  94 H :   -0.009832
  95 H :   -0.005675
  96 H :   -0.001562
  97 H :    0.018396
  98 H :    0.027707
  99 H :    0.003958
 100 H :   -0.013234
 101 H :   -0.016397
 102 H :    0.097426
 103 H :    0.085302
 104 H :    0.033038
 105 H :    0.033427
 106 H :   -0.005056
 107 H :    0.007016
 108 H :    0.012258
 109 H :   -0.011484
 110 H :   -0.004677
 111 H :   -0.005190
Sum of atomic charges:   -0.0000000

LOEWDIN ATOMIC CHARGES
----------------------
   0 C :    0.078540
   1 C :   -0.154642
   2 C :   -0.018805
   3 N :   -0.062874
   4 C :   -0.018796
   5 N :   -0.065422
   6 C :   -0.020032
   7 C :   -0.048933
   8 C :    0.019034
   9 C :   -0.034567
  10 C :   -0.145390
  11 C :   -0.010739
  12 S :    0.430885
  13 C :   -0.273259
  14 C :   -0.070922
  15 Br:    0.133253
  16 C :    0.081226
  17 O :   -0.169448
  18 C :   -0.118244
  19 C :    0.051784
  20 C :   -0.195971
  21 S :    0.502666
  22 C :   -0.149144
  23 C :   -0.062643
  24 C :   -0.012141
  25 C :   -0.027810
  26 C :   -0.039416
  27 C :    0.012608
  28 N :   -0.101578
  29 C :   -0.028933
  30 C :   -0.042816
  31 C :   -0.018100
  32 C :   -0.051348
  33 C :   -0.137847
  34 C :   -0.031208
  35 C :   -0.027637
  36 C :   -0.174671
  37 S :    0.377710
  38 C :   -0.177901
  39 C :   -0.030651
  40 C :   -0.030246
  41 C :   -0.142193
  42 S :    0.410526
  43 C :   -0.082020
  44 C :   -0.155983
  45 S :    0.432316
  46 C :   -0.183997
  47 C :   -0.012109
  48 C :   -0.059873
  49 C :   -0.038936
  50 C :   -0.039844
  51 C :    0.013187
  52 N :   -0.102874
  53 C :   -0.036022
  54 C :    0.019635
  55 C :   -0.047522
  56 C :    0.068374
  57 C :   -0.109595
  58 C :    0.073906
  59 C :   -0.152172
  60 C :   -0.019471
  61 N :   -0.059628
  62 C :   -0.001540
  63 N :   -0.067976
  64 C :   -0.017679
  65 C :   -0.051467
  66 C :    0.081220
  67 O :   -0.151917
  68 C :    0.020289
  69 C :   -0.035220
  70 C :   -0.144462
  71 C :   -0.014054
  72 S :    0.429813
  73 C :   -0.273396
  74 C :   -0.070428
  75 Br:    0.133045
  76 H :    0.039580
  77 H :    0.040717
  78 H :    0.037929
  79 H :    0.046437
  80 H :    0.039734
  81 H :    0.040980
  82 H :    0.018429
  83 H :    0.023375
  84 H :    0.020765
  85 H :    0.049759
  86 H :    0.054582
  87 H :    0.027275
  88 H :    0.036131
  89 H :    0.029730
  90 H :    0.023243
  91 H :    0.034799
  92 H :    0.035857
  93 H :    0.033776
  94 H :    0.033716
  95 H :    0.035215
  96 H :    0.036231
  97 H :    0.030199
  98 H :    0.019613
  99 H :    0.023168
 100 H :    0.018454
 101 H :    0.013742
 102 H :    0.055423
 103 H :    0.051632
 104 H :    0.037986
 105 H :    0.037804
 106 H :    0.034417
 107 H :    0.030452
 108 H :    0.042426
 109 H :    0.040400
 110 H :    0.040406
 111 H :    0.038113

  Mayer bond orders larger than 0.100000
B(  0-C ,  1-C ) :   1.5931 B(  0-C ,  6-C ) :   0.9913 B(  0-C , 18-C ) :   1.1058
B(  1-C ,  2-C ) :   1.1485 B(  1-C ,  4-C ) :   1.1556 B(  2-C ,  3-N ) :   2.9633
B(  4-C ,  5-N ) :   2.9487 B(  6-C ,  7-C ) :   1.2790 B(  6-C , 11-C ) :   1.4173
B(  7-C ,  8-C ) :   1.4253 B(  7-C , 16-C ) :   0.9527 B(  8-C ,  9-C ) :   1.2375
B(  8-C , 76-H ) :   1.0177 B(  9-C , 10-C ) :   1.3150 B(  9-C , 14-C ) :   1.1623
B( 10-C , 11-C ) :   1.3222 B( 10-C , 12-S ) :   1.0849 B( 11-C , 77-H ) :   0.9794
B( 12-S , 13-C ) :   1.0877 B( 13-C , 14-C ) :   1.6182 B( 13-C , 15-Br) :   1.0159
B( 14-C , 78-H ) :   0.9999 B( 16-C , 17-O ) :   2.1439 B( 16-C , 18-C ) :   0.9761
B( 18-C , 19-C ) :   1.4596 B( 19-C , 20-C ) :   1.3124 B( 19-C , 79-H ) :   0.9265
B( 20-C , 21-S ) :   1.0823 B( 20-C , 24-C ) :   1.3300 B( 21-S , 22-C ) :   1.1211
B( 22-C , 23-C ) :   1.3618 B( 22-C , 30-C ) :   1.1715 B( 23-C , 24-C ) :   1.4393
B( 23-C , 29-C ) :   1.0278 B( 24-C , 25-C ) :   1.0527 B( 25-C , 26-C ) :   1.0727
B( 25-C , 80-H ) :   0.9022 B( 25-C , 81-H ) :   0.9006 B( 26-C , 27-C ) :   1.0289
B( 26-C , 82-H ) :   0.9265 B( 26-C , 83-H ) :   0.9266 B( 27-C , 28-N ) :   1.1104
B( 27-C , 29-C ) :   1.0384 B( 27-C , 84-H ) :   0.9252 B( 28-N , 85-H ) :   0.9685
B( 28-N , 86-H ) :   0.9689 B( 29-C , 87-H ) :   0.8910 B( 29-C , 88-H ) :   0.9139
B( 30-C , 31-C ) :   1.5886 B( 30-C , 89-H ) :   0.9576 B( 31-C , 32-C ) :   1.1889
B( 31-C , 90-H ) :   0.9631 B( 32-C , 33-C ) :   1.5201 B( 32-C , 91-H ) :   0.9874
B( 33-C , 34-C ) :   1.1591 B( 33-C , 37-S ) :   1.0415 B( 34-C , 35-C ) :   1.5696
B( 34-C , 92-H ) :   0.9994 B( 35-C , 36-C ) :   1.2035 B( 35-C , 93-H ) :   0.9940
B( 36-C , 37-S ) :   1.0523 B( 36-C , 38-C ) :   1.4855 B( 38-C , 39-C ) :   1.1932
B( 38-C , 42-S ) :   1.0529 B( 39-C , 40-C ) :   1.5867 B( 39-C , 94-H ) :   0.9933
B( 40-C , 41-C ) :   1.1430 B( 40-C , 95-H ) :   0.9997 B( 41-C , 42-S ) :   1.0457
B( 41-C , 43-C ) :   1.6032 B( 43-C , 44-C ) :   1.1418 B( 43-C , 96-H ) :   0.9446
B( 44-C , 45-S ) :   1.1296 B( 44-C , 48-C ) :   1.4319 B( 45-S , 46-C ) :   1.0925
B( 46-C , 47-C ) :   1.4125 B( 46-C , 54-C ) :   1.1939 B( 47-C , 48-C ) :   1.3751
B( 47-C , 53-C ) :   1.0398 B( 48-C , 49-C ) :   1.0488 B( 49-C , 50-C ) :   1.0743
B( 49-C , 97-H ) :   0.9234 B( 49-C , 98-H ) :   0.8874 B( 50-C , 51-C ) :   1.0397
B( 50-C , 99-H ) :   0.9291 B( 50-C ,100-H ) :   0.9278 B( 51-C , 52-N ) :   1.1094
B( 51-C , 53-C ) :   1.0399 B( 51-C ,101-H ) :   0.9150 B( 52-N ,102-H ) :   0.9652
B( 52-N ,103-H ) :   0.9689 B( 53-C ,104-H ) :   0.8747 B( 53-C ,105-H ) :   0.8920
B( 54-C , 55-C ) :   1.5689 B( 54-C ,106-H ) :   0.9554 B( 55-C , 56-C ) :   1.2005
B( 55-C ,107-H ) :   0.9537 B( 56-C , 57-C ) :   1.5168 B( 56-C ,108-H ) :   0.9561
B( 57-C , 58-C ) :   1.0738 B( 57-C , 66-C ) :   0.9563 B( 58-C , 59-C ) :   1.5921
B( 58-C , 64-C ) :   1.0069 B( 59-C , 60-C ) :   1.1291 B( 59-C , 62-C ) :   1.1968
B( 60-C , 61-N ) :   2.9813 B( 62-C , 63-N ) :   2.8691 B( 64-C , 65-C ) :   1.2767
B( 64-C , 71-C ) :   1.4176 B( 65-C , 66-C ) :   0.9211 B( 65-C , 68-C ) :   1.4323
B( 66-C , 67-O ) :   2.2507 B( 68-C , 69-C ) :   1.2448 B( 68-C ,109-H ) :   1.0168
B( 69-C , 70-C ) :   1.3133 B( 69-C , 74-C ) :   1.1619 B( 70-C , 71-C ) :   1.3230
B( 70-C , 72-S ) :   1.0842 B( 71-C ,110-H ) :   0.9808 B( 72-S , 73-C ) :   1.0861
B( 73-C , 74-C ) :   1.6200 B( 73-C , 75-Br) :   1.0160 B( 74-C ,111-H ) :   1.0007

-----------------------------------------------------------------------------
         ABSORPTION SPECTRUM VIA TRANSITION ELECTRIC DIPOLE MOMENTS
-----------------------------------------------------------------------------
State   Energy  Wavelength   fosc         T2         TX        TY        TZ
        (cm-1)    (nm)                  (au**2)     (au)      (au)      (au)
-----------------------------------------------------------------------------
   0   10232.8    977.3   1.572106184  50.57820  -1.33617  -4.36634   5.45233
   1   16023.6    624.1   0.874983837  17.97692   3.60940  -2.20065  -0.32606
   2   19337.4    517.1   1.266123977  21.55525  -3.87831   2.53941   0.25563
   3   20422.8    489.6   0.070875686   1.14250  -0.71278  -0.11951   0.78751
   4   23014.2    434.5   0.073488085   1.05123   0.93023  -0.37601  -0.21100
   5   23345.0    428.4   0.017865987   0.25195  -0.23252   0.23384  -0.37842
   6   24697.8    404.9   0.125050367   1.66687  -1.21631  -0.18566   0.39114
   7   25876.0    386.5   0.029430038   0.37443  -0.35031  -0.19242   0.46335
   8   26492.0    377.5   0.000821101   0.01020  -0.01930  -0.06214   0.07726
   9   27035.8    369.9   0.147611228   1.79744   1.32614   0.07950   0.18020
  10   27359.3    365.5   0.264095006   3.17783  -1.18981  -1.09297   0.75340
  11   27593.6    362.4   0.003271137   0.03903   0.07445   0.09485  -0.15648
  12   27631.8    361.9   0.081761348   0.97412   0.03887   0.98001  -0.11044
  13   28342.5    352.8   0.005000085   0.05808  -0.06399   0.20720  -0.10512
  14   28725.2    348.1   0.027164420   0.31132  -0.54723  -0.08989   0.06154
  15   29369.8    340.5   0.042157928   0.47256   0.32799  -0.59716   0.09154
  16   29461.3    339.4   0.039909004   0.44596  -0.36138  -0.47259   0.30335
  17   29847.9    335.0   0.019615626   0.21635  -0.25655   0.38200  -0.06793
  18   30145.7    331.7   0.017602092   0.19223   0.01954  -0.40719   0.16136
  19   30253.0    330.5   0.008667322   0.09432   0.18983   0.23519  -0.05452
  20   30563.1    327.2   0.011682448   0.12584  -0.11970  -0.30589   0.13393
  21   30908.6    323.5   0.139717412   1.48815   0.96258   0.59355  -0.45747
  22   31378.8    318.7   0.057407338   0.60229  -0.42774   0.64755   0.00103
  23   32037.3    312.1   0.003314657   0.03406  -0.01976  -0.18349  -0.00091
  24   32238.5    310.2   0.106553428   1.08810  -0.84850  -0.46887   0.38510
  25   32586.9    306.9   0.541857249   5.47417  -2.08203  -0.96102   0.46450
  26   32747.1    305.4   0.000403277   0.00405   0.05497   0.03143   0.00674
  27   32766.8    305.2   0.274576878   2.75870   1.30040   0.74149  -0.71962
  28   32983.1    303.2   0.098000366   0.97816  -0.01118   0.63401  -0.75899
  29   33407.0    299.3   0.177066873   1.74492   1.26411   0.29773  -0.24145
  30   33543.7    298.1   0.005165384   0.05070   0.07362  -0.20261   0.06500
  31   33832.9    295.6   0.064003219   0.62279   0.76866  -0.03252  -0.17577
  32   34104.6    293.2   0.004884431   0.04715  -0.18246   0.11713  -0.01166
  33   34141.0    292.9   0.001740544   0.01678  -0.08277   0.09891  -0.01222
  34   34386.9    290.8   0.146557699   1.40311   1.06936   0.32484  -0.39250
  35   34928.6    286.3   0.071193746   0.67102   0.39020   0.43795  -0.57180
  36   35149.5    284.5   0.001518756   0.01422  -0.06845   0.00425   0.09758
  37   35322.1    283.1   0.034263158   0.31934  -0.02793  -0.44886   0.34218
  38   35680.7    280.3   0.006085005   0.05614   0.06109  -0.19144   0.12555
  39   35921.2    278.4   0.054261653   0.49730  -0.36504  -0.25436   0.54712
  40   36554.6    273.6   0.091681722   0.82569  -0.76047  -0.26042   0.42375
  41   37316.9    268.0   0.053464390   0.47167  -0.07785  -0.67865  -0.07098
  42   37373.3    267.6   0.049166267   0.43309  -0.17825  -0.63261   0.03354
  43   37493.7    266.7   0.091258736   0.80129  -0.30580  -0.81006   0.22714
  44   37973.1    263.3   0.321035785   2.78326   1.64098  -0.16644  -0.25047
  45   38159.9    262.1   0.023761507   0.20499   0.33861   0.17939  -0.24115
  46   38336.3    260.8   0.012589123   0.10811   0.29535   0.08570  -0.11633
  47   38494.6    259.8   0.005739984   0.04909   0.21603   0.03661  -0.03289
  48   38789.7    257.8   0.018891548   0.16033   0.02268  -0.34828   0.19626
  49   39047.3    256.1   0.006887637   0.05807   0.03678   0.20933   0.11356
  50   39345.2    254.2   0.001462829   0.01224  -0.01557  -0.03351  -0.10428
  51   39393.1    253.9   0.015075381   0.12599  -0.24122  -0.17967  -0.18846
  52   39852.2    250.9   0.010605732   0.08761  -0.22500   0.18665   0.04634
  53   39943.0    250.4   0.050005466   0.41215  -0.53485   0.35442   0.02177
  54   40079.4    249.5   0.018408237   0.15121  -0.03383  -0.36162   0.13889
  55   40181.5    248.9   0.050460698   0.41343   0.23955  -0.59482   0.04730
  56   40276.5    248.3   0.077514937   0.63359   0.39782   0.48010  -0.49481

FINAL SINGLE POINT ENERGY    -10319.701134437964

DIPOLE MOMENT
-------------
                                X             Y             Z
Electronic contribution:    125.00747    -122.22051      31.73642
Nuclear contribution   :   -129.02576     124.46144     -30.79938
                        -----------------------------------------
Total Dipole Moment    :     -4.01829       2.24093       0.93703
                        -----------------------------------------
Magnitude (a.u.)       :      4.69536
Magnitude (Debye)      :     11.93466

Rotational constants in cm-1:     0.000606     0.000168     0.000135
Rotational constants in MHz :    18.161583     5.029008     4.045067

                             ****ORCA TERMINATED NORMALLY****
TOTAL RUN TIME: 0 days 0 hours 12 minutes 16 seconds 160 msec
