                         Program Version 4.2.0 -  RELEASE  -
|  1> # ORCA input file
|  2> # SCF done       -178.840038444590          0.000528887434
|  3> ! CAM-B3LYP def2-SVP def2/J RIJCOSX Grid4 TightSCF
|  4> %maxcore 5000
|  5> %tddft
|  6>     Mode sTDDFT
|  7>     Ethresh 5.0
|  8>     maxcore 5000
|  9> end
| 10>
| 11> %pal
| 12>   nprocs 6
| 13>   end
| 14> * xyz 0 1
| 15>    C       -1.61948         0.48422         0.51695
| 16>    C       -0.84123        -0.02897        -0.49341
| 17>    C        0.08563        -1.07719        -0.32262
| 18>    N        0.85811        -1.92423        -0.25214
| 19>    C       -0.85592         0.38623        -1.83957
| 20>    N       -0.81076         0.65617        -2.95654
| 21>    C       -1.61961         0.00686         1.89753
| 22>    C       -2.59151         0.73390         2.62711
| 23>    C       -2.83930         0.51316         3.95908
| 24>    C       -2.08907        -0.47482         4.60668
| 25>    C       -1.11882        -1.19471         3.87163
| 26>    C       -0.86952        -0.97085         2.52251
| 27>    S       -0.30504        -2.36680         4.86370
| 28>    C       -1.26784        -1.88066         6.23340
| 29>    C       -2.15270        -0.89157         5.96457
| 30>   Br       -1.01398        -2.72414         7.88969
| 31>    C       -3.23886         1.70936         1.72834
| 32>    O       -4.12395         2.48906         2.03692
| 33>    C       -2.59845         1.54492         0.42198
| 34>    C       -2.85488         2.28220        -0.71255
| 35>    C       -3.78518         3.29198        -0.95915
| 36>    S       -4.94763         3.91898         0.18354
| 37>    C       -5.58327         5.00992        -1.00575
| 38>    C       -4.90857         4.90167        -2.22871
| 39>    C       -3.91419         3.93520        -2.20763
| 40>    C       -3.06516         3.63327        -3.40164
| 41>    C       -3.69037         4.20050        -4.67369
| 42>    C       -4.09924         5.66612        -4.46719
| 43>    N       -4.53689         6.34779        -5.67248
| 44>    C       -5.22732         5.72690        -3.43418
| 45>    C       -6.66657         5.86940        -0.72481
| 46>    C       -7.28524         5.94655         0.48544
| 47>    C       -8.38592         6.77513         0.76735
| 48>    C       -9.07545         6.91083         1.98120
| 49>    C      -10.17479         7.83063         1.91456
| 50>    N      -10.97995         8.05345         2.97056
| 51>    C      -10.72759         7.42184         4.08092
| 52>    C       -9.66404         6.51295         4.25527
| 53>    C       -8.83106         6.25374         3.20140
| 54>    C      -10.32779         8.41360         0.64699
| 55>    S       -9.11959         7.79171        -0.43056
| 56>    C      -11.25020         9.33049         0.04974
| 57>    C      -12.13065        10.20471         0.57158
| 58>    C      -12.38087        10.50062         2.00657
| 59>    C      -12.99814        10.99137        -0.37905
| 60>    N      -14.29519        10.34529        -0.45773
| 61>    C      -15.45178        10.97939        -0.64959
| 62>    C      -15.58924        12.26918        -1.08917
| 63>    C      -16.81376        12.92045        -1.28519
| 64>    C      -18.08548        12.63458        -0.84209
| 65>    C      -18.62655        11.83067         0.21973
| 66>    C      -18.00656        11.44187         1.38774
| 67>    C      -18.64569        10.74465         2.43014
| 68>    N      -19.09910        10.15733         3.30741
| 69>    C      -16.67464        11.73627         1.71537
| 70>    N      -15.58845        11.94259         2.03229
| 71>    C      -20.06526        11.69648        -0.01828
| 72>    C      -20.43181        12.55986        -1.07840
| 73>    C      -19.21743        13.23419        -1.58524
| 74>    O      -19.15465        14.07706        -2.45518
| 75>    C      -21.72529        12.68084        -1.52074
| 76>    C      -22.70448        11.90160        -0.89357
| 77>    C      -22.32605        11.03051         0.15354
| 78>    C      -21.01678        10.91509         0.60691
| 79>    S      -23.68923        10.14999         0.77710
| 80>    C      -24.73527        10.95894        -0.35937
| 81>    C      -24.09919        11.84036        -1.16608
| 82>   Br      -26.56860        10.55907        -0.37575
| 83>    H       -3.58788         1.08350         4.48630
| 84>    H       -0.11807        -1.54665         2.00909
| 85>    H       -2.82321        -0.47221         6.69227
| 86>    H       -2.23740         2.05056        -1.56944
| 87>    H       -2.92074         2.55676        -3.51553
| 88>    H       -2.07521         4.07726        -3.25227
| 89>    H       -4.57562         3.61717        -4.94116
| 90>    H       -2.97400         4.12260        -5.49449
| 91>    H       -3.23542         6.22211        -4.08302
| 92>    H       -5.30416         5.84181        -6.10379
| 93>    H       -3.78252         6.39741        -6.34798
| 94>    H       -6.14928         5.35551        -3.89468
| 95>    H       -5.40088         6.76680        -3.15412
| 96>    H       -7.02545         6.49208        -1.53421
| 97>    H       -6.92010         5.32978         1.29574
| 98>    H      -11.40043         7.63587         4.90111
| 99>    H       -9.52142         6.03525         5.21138
|100>    H       -8.00732         5.56160         3.29200
|101>    H      -11.17048         9.32139        -1.03364
|102>    H      -11.81828        11.39188         2.28905
|103>    H      -12.06215         9.67951         2.64105
|104>    H      -13.43382        10.72388         2.17030
|105>    H      -12.55208        11.04568        -1.37991
|106>    H      -13.14118        12.00473         0.00430
|107>    H      -14.31108         9.37423        -0.18593
|108>    H      -16.33604        10.36833        -0.52117
|109>    H      -14.70546        12.81287        -1.38692
|110>    H      -16.78643        13.77197        -1.95980
|111>    H      -21.97649        13.35432        -2.32505
|112>    H      -20.77799        10.23187         1.40499
|113>    H      -24.59033        12.42401        -1.92319
|114> *
|115>
|116>                          ****END OF INPUT****

CARTESIAN COORDINATES (ANGSTROEM)
---------------------------------
  C     -1.619480    0.484220    0.516950
  C     -0.841230   -0.028970   -0.493410
  C      0.085630   -1.077190   -0.322620
  N      0.858110   -1.924230   -0.252140
  C     -0.855920    0.386230   -1.839570
  N     -0.810760    0.656170   -2.956540
  C     -1.619610    0.006860    1.897530
  C     -2.591510    0.733900    2.627110
  C     -2.839300    0.513160    3.959080
  C     -2.089070   -0.474820    4.606680
  C     -1.118820   -1.194710    3.871630
  C     -0.869520   -0.970850    2.522510
  S     -0.305040   -2.366800    4.863700
  C     -1.267840   -1.880660    6.233400
  C     -2.152700   -0.891570    5.964570
  Br    -1.013980   -2.724140    7.889690
  C     -3.238860    1.709360    1.728340
  O     -4.123950    2.489060    2.036920
  C     -2.598450    1.544920    0.421980
  C     -2.854880    2.282200   -0.712550
  C     -3.785180    3.291980   -0.959150
  S     -4.947630    3.918980    0.183540
  C     -5.583270    5.009920   -1.005750
  C     -4.908570    4.901670   -2.228710
  C     -3.914190    3.935200   -2.207630
  C     -3.065160    3.633270   -3.401640
  C     -3.690370    4.200500   -4.673690
  C     -4.099240    5.666120   -4.467190
  N     -4.536890    6.347790   -5.672480
  C     -5.227320    5.726900   -3.434180
  C     -6.666570    5.869400   -0.724810
  C     -7.285240    5.946550    0.485440
  C     -8.385920    6.775130    0.767350
  C     -9.075450    6.910830    1.981200
  C    -10.174790    7.830630    1.914560
  N    -10.979950    8.053450    2.970560
  C    -10.727590    7.421840    4.080920
  C     -9.664040    6.512950    4.255270
  C     -8.831060    6.253740    3.201400
  C    -10.327790    8.413600    0.646990
  S     -9.119590    7.791710   -0.430560
  C    -11.250200    9.330490    0.049740
  C    -12.130650   10.204710    0.571580
  C    -12.380870   10.500620    2.006570
  C    -12.998140   10.991370   -0.379050
  N    -14.295190   10.345290   -0.457730
  C    -15.451780   10.979390   -0.649590
  C    -15.589240   12.269180   -1.089170
  C    -16.813760   12.920450   -1.285190
  C    -18.085480   12.634580   -0.842090
  C    -18.626550   11.830670    0.219730
  C    -18.006560   11.441870    1.387740
  C    -18.645690   10.744650    2.430140
  N    -19.099100   10.157330    3.307410
  C    -16.674640   11.736270    1.715370
  N    -15.588450   11.942590    2.032290
  C    -20.065260   11.696480   -0.018280
  C    -20.431810   12.559860   -1.078400
  C    -19.217430   13.234190   -1.585240
  O    -19.154650   14.077060   -2.455180
  C    -21.725290   12.680840   -1.520740
  C    -22.704480   11.901600   -0.893570
  C    -22.326050   11.030510    0.153540
  C    -21.016780   10.915090    0.606910
  S    -23.689230   10.149990    0.777100
  C    -24.735270   10.958940   -0.359370
  C    -24.099190   11.840360   -1.166080
  Br   -26.568600   10.559070   -0.375750
  H     -3.587880    1.083500    4.486300
  H     -0.118070   -1.546650    2.009090
  H     -2.823210   -0.472210    6.692270
  H     -2.237400    2.050560   -1.569440
  H     -2.920740    2.556760   -3.515530
  H     -2.075210    4.077260   -3.252270
  H     -4.575620    3.617170   -4.941160
  H     -2.974000    4.122600   -5.494490
  H     -3.235420    6.222110   -4.083020
  H     -5.304160    5.841810   -6.103790
  H     -3.782520    6.397410   -6.347980
  H     -6.149280    5.355510   -3.894680
  H     -5.400880    6.766800   -3.154120
  H     -7.025450    6.492080   -1.534210
  H     -6.920100    5.329780    1.295740
  H    -11.400430    7.635870    4.901110
  H     -9.521420    6.035250    5.211380
  H     -8.007320    5.561600    3.292000
  H    -11.170480    9.321390   -1.033640
  H    -11.818280   11.391880    2.289050
  H    -12.062150    9.679510    2.641050
  H    -13.433820   10.723880    2.170300
  H    -12.552080   11.045680   -1.379910
  H    -13.141180   12.004730    0.004300
  H    -14.311080    9.374230   -0.185930
  H    -16.336040   10.368330   -0.521170
  H    -14.705460   12.812870   -1.386920
  H    -16.786430   13.771970   -1.959800
  H    -21.976490   13.354320   -2.325050
  H    -20.777990   10.231870    1.404990
  H    -24.590330   12.424010   -1.923190

 Total Charge           Charge          ....    0
 Multiplicity           Mult            ....    1
 Number of Electrons    NEL             ....  548
 Basis Dimension        Dim             .... 1159

ORBITAL ENERGIES
----------------

  NO   OCC          E(Eh)            E(eV)
   0   2.0000    -482.883990    -13139.9414
   1   2.0000    -482.879025    -13139.8063
   2   2.0000     -88.979759     -2421.2623
   3   2.0000     -88.973031     -2421.0793
   4   2.0000     -88.967235     -2420.9215
   5   2.0000     -88.956805     -2420.6377
   6   2.0000     -62.561714     -1702.3908
   7   2.0000     -62.556758     -1702.2559
   8   2.0000     -56.395660     -1534.6039
   9   2.0000     -56.392954     -1534.5303
  10   2.0000     -56.392914     -1534.5292
  11   2.0000     -56.390698     -1534.4689
  12   2.0000     -56.388001     -1534.3955
  13   2.0000     -56.387962     -1534.3945
  14   2.0000     -19.214848      -522.8626
  15   2.0000     -19.196915      -522.3746
  16   2.0000     -14.466934      -393.6653
  17   2.0000     -14.415877      -392.2760
  18   2.0000     -14.414288      -392.2327
  19   2.0000     -14.410193      -392.1213
  20   2.0000     -14.408519      -392.0757
  21   2.0000     -14.402500      -391.9119
  22   2.0000     -14.386063      -391.4647
  23   2.0000     -10.363704      -282.0107
  24   2.0000     -10.356586      -281.8170
  25   2.0000     -10.350534      -281.6523
  26   2.0000     -10.348291      -281.5913
  27   2.0000     -10.348039      -281.5845
  28   2.0000     -10.336524      -281.2711
  29   2.0000     -10.334097      -281.2051
  30   2.0000     -10.331303      -281.1291
  31   2.0000     -10.324563      -280.9456
  32   2.0000     -10.322170      -280.8805
  33   2.0000     -10.320999      -280.8487
  34   2.0000     -10.320741      -280.8416
  35   2.0000     -10.319622      -280.8112
  36   2.0000     -10.319324      -280.8031
  37   2.0000     -10.318732      -280.7870
  38   2.0000     -10.318243      -280.7737
  39   2.0000     -10.315700      -280.7045
  40   2.0000     -10.315185      -280.6905
  41   2.0000     -10.313883      -280.6550
  42   2.0000     -10.312564      -280.6191
  43   2.0000     -10.310098      -280.5520
  44   2.0000     -10.307440      -280.4797
  45   2.0000     -10.307043      -280.4689
  46   2.0000     -10.305717      -280.4328
  47   2.0000     -10.304561      -280.4014
  48   2.0000     -10.304434      -280.3979
  49   2.0000     -10.303801      -280.3807
  50   2.0000     -10.303684      -280.3775
  51   2.0000     -10.301719      -280.3240
  52   2.0000     -10.300157      -280.2815
  53   2.0000     -10.298114      -280.2259
  54   2.0000     -10.297845      -280.2186
  55   2.0000     -10.297326      -280.2045
  56   2.0000     -10.296615      -280.1851
  57   2.0000     -10.295337      -280.1504
  58   2.0000     -10.295092      -280.1437
  59   2.0000     -10.294818      -280.1363
  60   2.0000     -10.294115      -280.1171
  61   2.0000     -10.293494      -280.1002
  62   2.0000     -10.291666      -280.0505
  63   2.0000     -10.290295      -280.0132
  64   2.0000     -10.289689      -279.9967
  65   2.0000     -10.288817      -279.9729
  66   2.0000     -10.288780      -279.9719
  67   2.0000     -10.288406      -279.9618
  68   2.0000     -10.282751      -279.8079
  69   2.0000     -10.279950      -279.7317
  70   2.0000     -10.277106      -279.6543
  71   2.0000     -10.274777      -279.5909
  72   2.0000     -10.272143      -279.5192
  73   2.0000     -10.270098      -279.4636
  74   2.0000     -10.266962      -279.3782
  75   2.0000     -10.240183      -278.6495
  76   2.0000      -8.791145      -239.2192
  77   2.0000      -8.786193      -239.0845
  78   2.0000      -8.074914      -219.7296
  79   2.0000      -8.069057      -219.5702
  80   2.0000      -8.063223      -219.4114
  81   2.0000      -8.050476      -219.0646
  82   2.0000      -6.627440      -180.3418
  83   2.0000      -6.622460      -180.2063
  84   2.0000      -6.612865      -179.9452
  85   2.0000      -6.612705      -179.9409
  86   2.0000      -6.607925      -179.8108
  87   2.0000      -6.607769      -179.8065
  88   2.0000      -6.043724      -164.4581
  89   2.0000      -6.039794      -164.3511
  90   2.0000      -6.038751      -164.3228
  91   2.0000      -6.037875      -164.2989
  92   2.0000      -6.034466      -164.2062
  93   2.0000      -6.032916      -164.1640
  94   2.0000      -6.030273      -164.0921
  95   2.0000      -6.028654      -164.0480
  96   2.0000      -6.024443      -163.9334
  97   2.0000      -6.019823      -163.8077
  98   2.0000      -6.015515      -163.6905
  99   2.0000      -6.012584      -163.6107
 100   2.0000      -2.743301       -74.6490
 101   2.0000      -2.739245       -74.5386
 102   2.0000      -2.739065       -74.5338
 103   2.0000      -2.738323       -74.5135
 104   2.0000      -2.734257       -74.4029
 105   2.0000      -2.734141       -74.3998
 106   2.0000      -2.727519       -74.2196
 107   2.0000      -2.727503       -74.2191
 108   2.0000      -2.722583       -74.0853
 109   2.0000      -2.722579       -74.0851
 110   2.0000      -1.129720       -30.7413
 111   2.0000      -1.111748       -30.2522
 112   2.0000      -1.063434       -28.9375
 113   2.0000      -1.055441       -28.7200
 114   2.0000      -1.019546       -27.7433
 115   2.0000      -1.012686       -27.5566
 116   2.0000      -1.010430       -27.4952
 117   2.0000      -1.004793       -27.3418
 118   2.0000      -1.000008       -27.2116
 119   2.0000      -0.990658       -26.9572
 120   2.0000      -0.990632       -26.9565
 121   2.0000      -0.985865       -26.8268
 122   2.0000      -0.985396       -26.8140
 123   2.0000      -0.977395       -26.5963
 124   2.0000      -0.975455       -26.5435
 125   2.0000      -0.939943       -25.5771
 126   2.0000      -0.934330       -25.4244
 127   2.0000      -0.931171       -25.3385
 128   2.0000      -0.916676       -24.9440
 129   2.0000      -0.909016       -24.7356
 130   2.0000      -0.905320       -24.6350
 131   2.0000      -0.902374       -24.5549
 132   2.0000      -0.898451       -24.4481
 133   2.0000      -0.895381       -24.3646
 134   2.0000      -0.886618       -24.1261
 135   2.0000      -0.882644       -24.0180
 136   2.0000      -0.875964       -23.8362
 137   2.0000      -0.871350       -23.7106
 138   2.0000      -0.864525       -23.5249
 139   2.0000      -0.852745       -23.2044
 140   2.0000      -0.840666       -22.8757
 141   2.0000      -0.836973       -22.7752
 142   2.0000      -0.826441       -22.4886
 143   2.0000      -0.820628       -22.3304
 144   2.0000      -0.817281       -22.2393
 145   2.0000      -0.810400       -22.0521
 146   2.0000      -0.796855       -21.6835
 147   2.0000      -0.788117       -21.4458
 148   2.0000      -0.780963       -21.2511
 149   2.0000      -0.759762       -20.6742
 150   2.0000      -0.758059       -20.6278
 151   2.0000      -0.753993       -20.5172
 152   2.0000      -0.742331       -20.1999
 153   2.0000      -0.738009       -20.0822
 154   2.0000      -0.727176       -19.7875
 155   2.0000      -0.717178       -19.5154
 156   2.0000      -0.707407       -19.2495
 157   2.0000      -0.703051       -19.1310
 158   2.0000      -0.698089       -18.9960
 159   2.0000      -0.688659       -18.7394
 160   2.0000      -0.683178       -18.5902
 161   2.0000      -0.680839       -18.5266
 162   2.0000      -0.676398       -18.4057
 163   2.0000      -0.667875       -18.1738
 164   2.0000      -0.657736       -17.8979
 165   2.0000      -0.654325       -17.8051
 166   2.0000      -0.651915       -17.7395
 167   2.0000      -0.648745       -17.6532
 168   2.0000      -0.634359       -17.2618
 169   2.0000      -0.632952       -17.2235
 170   2.0000      -0.628578       -17.1045
 171   2.0000      -0.619406       -16.8549
 172   2.0000      -0.614467       -16.7205
 173   2.0000      -0.612125       -16.6568
 174   2.0000      -0.606144       -16.4940
 175   2.0000      -0.598888       -16.2966
 176   2.0000      -0.596196       -16.2233
 177   2.0000      -0.591008       -16.0821
 178   2.0000      -0.586263       -15.9530
 179   2.0000      -0.585456       -15.9311
 180   2.0000      -0.582973       -15.8635
 181   2.0000      -0.575630       -15.6637
 182   2.0000      -0.565632       -15.3916
 183   2.0000      -0.563810       -15.3420
 184   2.0000      -0.558649       -15.2016
 185   2.0000      -0.556748       -15.1499
 186   2.0000      -0.547758       -14.9053
 187   2.0000      -0.542711       -14.7679
 188   2.0000      -0.541890       -14.7456
 189   2.0000      -0.538543       -14.6545
 190   2.0000      -0.537283       -14.6202
 191   2.0000      -0.535285       -14.5658
 192   2.0000      -0.532405       -14.4875
 193   2.0000      -0.528676       -14.3860
 194   2.0000      -0.527837       -14.3632
 195   2.0000      -0.525130       -14.2895
 196   2.0000      -0.521732       -14.1970
 197   2.0000      -0.519701       -14.1418
 198   2.0000      -0.518858       -14.1188
 199   2.0000      -0.517703       -14.0874
 200   2.0000      -0.515209       -14.0195
 201   2.0000      -0.509958       -13.8767
 202   2.0000      -0.506656       -13.7868
 203   2.0000      -0.506059       -13.7706
 204   2.0000      -0.504880       -13.7385
 205   2.0000      -0.501014       -13.6333
 206   2.0000      -0.498565       -13.5667
 207   2.0000      -0.493645       -13.4328
 208   2.0000      -0.493369       -13.4252
 209   2.0000      -0.492040       -13.3891
 210   2.0000      -0.489079       -13.3085
 211   2.0000      -0.488955       -13.3051
 212   2.0000      -0.483989       -13.1700
 213   2.0000      -0.481713       -13.1081
 214   2.0000      -0.479601       -13.0506
 215   2.0000      -0.477181       -12.9848
 216   2.0000      -0.474023       -12.8988
 217   2.0000      -0.470519       -12.8035
 218   2.0000      -0.470058       -12.7909
 219   2.0000      -0.466891       -12.7047
 220   2.0000      -0.464530       -12.6405
 221   2.0000      -0.461044       -12.5456
 222   2.0000      -0.455345       -12.3906
 223   2.0000      -0.454649       -12.3716
 224   2.0000      -0.453429       -12.3384
 225   2.0000      -0.449425       -12.2295
 226   2.0000      -0.447211       -12.1692
 227   2.0000      -0.446927       -12.1615
 228   2.0000      -0.445999       -12.1363
 229   2.0000      -0.440998       -12.0002
 230   2.0000      -0.440346       -11.9824
 231   2.0000      -0.437306       -11.8997
 232   2.0000      -0.436597       -11.8804
 233   2.0000      -0.434492       -11.8231
 234   2.0000      -0.432962       -11.7815
 235   2.0000      -0.431957       -11.7542
 236   2.0000      -0.430634       -11.7182
 237   2.0000      -0.430204       -11.7065
 238   2.0000      -0.425189       -11.5700
 239   2.0000      -0.424731       -11.5575
 240   2.0000      -0.423517       -11.5245
 241   2.0000      -0.421514       -11.4700
 242   2.0000      -0.419550       -11.4165
 243   2.0000      -0.418528       -11.3887
 244   2.0000      -0.412851       -11.2343
 245   2.0000      -0.410119       -11.1599
 246   2.0000      -0.405029       -11.0214
 247   2.0000      -0.403838       -10.9890
 248   2.0000      -0.400387       -10.8951
 249   2.0000      -0.396919       -10.8007
 250   2.0000      -0.396494       -10.7892
 251   2.0000      -0.393221       -10.7001
 252   2.0000      -0.383904       -10.4465
 253   2.0000      -0.379604       -10.3296
 254   2.0000      -0.373446       -10.1620
 255   2.0000      -0.368901       -10.0383
 256   2.0000      -0.368685       -10.0324
 257   2.0000      -0.367779       -10.0078
 258   2.0000      -0.355234        -9.6664
 259   2.0000      -0.342680        -9.3248
 260   2.0000      -0.336790        -9.1645
 261   2.0000      -0.333515        -9.0754
 262   2.0000      -0.331376        -9.0172
 263   2.0000      -0.329295        -8.9606
 264   2.0000      -0.320089        -8.7101
 265   2.0000      -0.318136        -8.6569
 266   2.0000      -0.311789        -8.4842
 267   2.0000      -0.307702        -8.3730
 268   2.0000      -0.305760        -8.3202
 269   2.0000      -0.293078        -7.9751
 270   2.0000      -0.286251        -7.7893
 271   2.0000      -0.285742        -7.7754
 272   2.0000      -0.262182        -7.1343
 273   2.0000      -0.238482        -6.4894
 274   0.0000      -0.100234        -2.7275
 275   0.0000      -0.071945        -1.9577
 276   0.0000      -0.067957        -1.8492
 277   0.0000      -0.052135        -1.4187
 278   0.0000      -0.040085        -1.0908

MULLIKEN ATOMIC CHARGES
-----------------------
   0 C :    0.322196
   1 C :   -0.363367
   2 C :   -0.188434
   3 N :    0.143607
   4 C :   -0.180722
   5 N :    0.132238
   6 C :    0.009152
   7 C :   -0.006849
   8 C :   -0.077245
   9 C :    0.118041
  10 C :   -0.092138
  11 C :   -0.021722
  12 S :    0.184974
  13 C :   -0.122746
  14 C :    0.036682
  15 Br:    0.020189
  16 C :    0.152547
  17 O :   -0.183214
  18 C :   -0.092441
  19 C :   -0.054759
  20 C :   -0.073155
  21 S :    0.155320
  22 C :   -0.051165
  23 C :   -0.064574
  24 C :   -0.102997
  25 C :    0.128592
  26 C :    0.078399
  27 C :   -0.085210
  28 N :   -0.164242
  29 C :    0.184429
  30 C :   -0.048735
  31 C :    0.015511
  32 C :   -0.096810
  33 C :    0.080603
  34 C :    0.058048
  35 N :   -0.050368
  36 C :    0.040203
  37 C :    0.002623
  38 C :    0.017194
  39 C :   -0.141079
  40 S :    0.150558
  41 C :    0.038267
  42 C :   -0.261230
  43 C :    0.125323
  44 C :    0.203977
  45 N :   -0.128825
  46 C :    0.091009
  47 C :   -0.060852
  48 C :    0.052907
  49 C :   -0.152919
  50 C :    0.283190
  51 C :   -0.375853
  52 C :   -0.175872
  53 N :    0.136699
  54 C :   -0.191291
  55 N :    0.149395
  56 C :   -0.006030
  57 C :    0.010252
  58 C :    0.126898
  59 O :   -0.161135
  60 C :   -0.078468
  61 C :    0.114640
  62 C :   -0.089893
  63 C :   -0.027121
  64 S :    0.177284
  65 C :   -0.124931
  66 C :    0.037665
  67 Br:    0.015451
  68 H :   -0.015201
  69 H :   -0.006888
  70 H :   -0.005670
  71 H :   -0.007669
  72 H :    0.042761
  73 H :    0.025514
  74 H :   -0.007611
  75 H :   -0.003254
  76 H :   -0.000382
  77 H :    0.086824
  78 H :    0.090456
  79 H :    0.001309
  80 H :    0.020083
  81 H :   -0.005116
  82 H :    0.007821
  83 H :    0.008929
  84 H :    0.001097
  85 H :   -0.002166
  86 H :   -0.024071
  87 H :    0.021494
  88 H :    0.024132
  89 H :    0.013594
  90 H :    0.019179
  91 H :    0.043101
  92 H :    0.141239
  93 H :    0.037135
  94 H :   -0.002447
  95 H :    0.024375
  96 H :   -0.013336
  97 H :   -0.007649
  98 H :   -0.005253
Sum of atomic charges:   -0.0000000

LOEWDIN ATOMIC CHARGES
----------------------
   0 C :    0.079073
   1 C :   -0.154834
   2 C :   -0.019004
   3 N :   -0.062310
   4 C :   -0.018354
   5 N :   -0.065766
   6 C :   -0.020205
   7 C :   -0.049002
   8 C :    0.018357
   9 C :   -0.034451
  10 C :   -0.145320
  11 C :   -0.010347
  12 S :    0.431606
  13 C :   -0.273030
  14 C :   -0.071211
  15 Br:    0.134073
  16 C :    0.081428
  17 O :   -0.173415
  18 C :   -0.119913
  19 C :    0.052227
  20 C :   -0.192165
  21 S :    0.491620
  22 C :   -0.147007
  23 C :   -0.066172
  24 C :   -0.010244
  25 C :   -0.027955
  26 C :   -0.039683
  27 C :    0.012191
  28 N :   -0.102162
  29 C :   -0.026076
  30 C :   -0.056941
  31 C :   -0.017924
  32 C :   -0.184552
  33 C :   -0.054548
  34 C :   -0.033620
  35 N :   -0.049675
  36 C :    0.032885
  37 C :   -0.046172
  38 C :    0.021784
  39 C :   -0.163266
  40 S :    0.491713
  41 C :   -0.080460
  42 C :   -0.013548
  43 C :   -0.067098
  44 C :    0.052505
  45 N :    0.047298
  46 C :    0.106253
  47 C :   -0.136256
  48 C :    0.083015
  49 C :   -0.141998
  50 C :    0.071600
  51 C :   -0.176855
  52 C :   -0.023627
  53 N :   -0.071986
  54 C :   -0.004731
  55 N :   -0.066287
  56 C :   -0.019296
  57 C :   -0.049866
  58 C :    0.079970
  59 O :   -0.160489
  60 C :    0.018225
  61 C :   -0.036327
  62 C :   -0.146414
  63 C :   -0.015898
  64 S :    0.425796
  65 C :   -0.274884
  66 C :   -0.070536
  67 Br:    0.130041
  68 H :    0.038861
  69 H :    0.040904
  70 H :    0.037865
  71 H :    0.046966
  72 H :    0.040262
  73 H :    0.040504
  74 H :    0.019328
  75 H :    0.023128
  76 H :    0.020657
  77 H :    0.050546
  78 H :    0.054192
  79 H :    0.029133
  80 H :    0.033622
  81 H :    0.024950
  82 H :    0.031456
  83 H :    0.024863
  84 H :    0.035417
  85 H :    0.035854
  86 H :    0.023216
  87 H :    0.041215
  88 H :    0.024874
  89 H :    0.029616
  90 H :    0.024335
  91 H :    0.037958
  92 H :    0.089210
  93 H :    0.038717
  94 H :    0.029956
  95 H :    0.045788
  96 H :    0.039678
  97 H :    0.039284
  98 H :    0.037866

  Mayer bond orders larger than 0.100000
B(  0-C ,  1-C ) :   1.5938 B(  0-C ,  6-C ) :   0.9911 B(  0-C , 18-C ) :   1.1079
B(  1-C ,  2-C ) :   1.1486 B(  1-C ,  4-C ) :   1.1554 B(  2-C ,  3-N ) :   2.9651
B(  4-C ,  5-N ) :   2.9493 B(  6-C ,  7-C ) :   1.2786 B(  6-C , 11-C ) :   1.4165
B(  7-C ,  8-C ) :   1.4241 B(  7-C , 16-C ) :   0.9541 B(  8-C ,  9-C ) :   1.2386
B(  8-C , 68-H ) :   1.0178 B(  9-C , 10-C ) :   1.3138 B(  9-C , 14-C ) :   1.1624
B( 10-C , 11-C ) :   1.3212 B( 10-C , 12-S ) :   1.0853 B( 11-C , 69-H ) :   0.9804
B( 12-S , 13-C ) :   1.0873 B( 13-C , 14-C ) :   1.6178 B( 13-C , 15-Br) :   1.0163
B( 14-C , 70-H ) :   1.0002 B( 16-C , 17-O ) :   2.1430 B( 16-C , 18-C ) :   0.9762
B( 18-C , 19-C ) :   1.4550 B( 19-C , 20-C ) :   1.3190 B( 19-C , 71-H ) :   0.9282
B( 20-C , 21-S ) :   1.0730 B( 20-C , 24-C ) :   1.3397 B( 21-S , 22-C ) :   1.1172
B( 22-C , 23-C ) :   1.3698 B( 22-C , 30-C ) :   1.2027 B( 23-C , 24-C ) :   1.4239
B( 23-C , 29-C ) :   1.0251 B( 24-C , 25-C ) :   1.0540 B( 25-C , 26-C ) :   1.0726
B( 25-C , 72-H ) :   0.9011 B( 25-C , 73-H ) :   0.9002 B( 26-C , 27-C ) :   1.0273
B( 26-C , 74-H ) :   0.9283 B( 26-C , 75-H ) :   0.9273 B( 27-C , 28-N ) :   1.1075
B( 27-C , 29-C ) :   1.0472 B( 27-C , 76-H ) :   0.9281 B( 28-N , 77-H ) :   0.9693
B( 28-N , 78-H ) :   0.9690 B( 29-C , 79-H ) :   0.8984 B( 29-C , 80-H ) :   0.9097
B( 30-C , 31-C ) :   1.5888 B( 30-C , 81-H ) :   0.9719 B( 31-C , 32-C ) :   1.2100
B( 31-C , 82-H ) :   0.9692 B( 32-C , 33-C ) :   1.3072 B( 32-C , 39-C ) :   0.1189
B( 32-C , 40-S ) :   1.1259 B( 33-C , 34-C ) :   1.1930 B( 33-C , 38-C ) :   1.2409
B( 34-C , 35-N ) :   1.3681 B( 34-C , 39-C ) :   1.3563 B( 35-N , 36-C ) :   1.6716
B( 35-N , 88-H ) :   0.1157 B( 36-C , 37-C ) :   1.2030 B( 36-C , 83-H ) :   0.9756
B( 37-C , 38-C ) :   1.5715 B( 37-C , 84-H ) :   0.9719 B( 38-C , 85-H ) :   0.9812
B( 39-C , 40-S ) :   1.1981 B( 39-C , 41-C ) :   1.0856 B( 41-C , 42-C ) :   1.7963
B( 41-C , 86-H ) :   0.9262 B( 42-C , 43-C ) :   1.0959 B( 42-C , 44-C ) :   1.0323
B( 43-C , 87-H ) :   0.9241 B( 43-C , 88-H ) :   0.9069 B( 43-C , 89-H ) :   0.9249
B( 44-C , 45-N ) :   0.9673 B( 44-C , 90-H ) :   0.9366 B( 44-C , 91-H ) :   0.9290
B( 45-N , 46-C ) :   1.3760 B( 45-N , 92-H ) :   0.9281 B( 46-C , 47-C ) :   1.4451
B( 46-C , 93-H ) :   0.9579 B( 47-C , 48-C ) :   1.3183 B( 47-C , 94-H ) :   0.9538
B( 48-C , 49-C ) :   1.4997 B( 48-C , 95-H ) :   0.9310 B( 49-C , 50-C ) :   1.1043
B( 49-C , 58-C ) :   0.9760 B( 50-C , 51-C ) :   1.5693 B( 50-C , 56-C ) :   1.0016
B( 51-C , 52-C ) :   1.1296 B( 51-C , 54-C ) :   1.1911 B( 52-C , 53-N ) :   2.9806
B( 54-C , 55-N ) :   2.9297 B( 56-C , 57-C ) :   1.2810 B( 56-C , 63-C ) :   1.4183
B( 57-C , 58-C ) :   0.9148 B( 57-C , 60-C ) :   1.4344 B( 58-C , 59-O ) :   2.2434
B( 60-C , 61-C ) :   1.2399 B( 60-C , 96-H ) :   1.0176 B( 61-C , 62-C ) :   1.3179
B( 61-C , 66-C ) :   1.1607 B( 62-C , 63-C ) :   1.3216 B( 62-C , 64-S ) :   1.0808
B( 63-C , 97-H ) :   0.9831 B( 64-S , 65-C ) :   1.0860 B( 65-C , 66-C ) :   1.6213
B( 65-C , 67-Br) :   1.0136 B( 66-C , 98-H ) :   1.0006

-----------------------------------------------------------------------------
         ABSORPTION SPECTRUM VIA TRANSITION ELECTRIC DIPOLE MOMENTS
-----------------------------------------------------------------------------
State   Energy  Wavelength   fosc         T2         TX        TY        TZ
        (cm-1)    (nm)                  (au**2)     (au)      (au)      (au)
-----------------------------------------------------------------------------
   0   15431.1    648.0   1.642106208  35.03317   4.47025  -3.87612  -0.16032
   1   21904.9    456.5   0.295315885   4.43834   1.78295   0.05870  -1.12072
   2   22617.8    442.1   0.000984122   0.01432  -0.00895  -0.09887   0.06685
   3   24359.4    410.5   0.009043580   0.12222   0.14871  -0.02447  -0.31545
   4   25263.6    395.8   0.001003127   0.01307  -0.09893   0.01417  -0.05552
   5   25918.1    385.8   0.003024091   0.03841  -0.00499  -0.19348   0.03087
   6   25959.8    385.2   0.008326419   0.10559  -0.05658  -0.23091   0.22152
   7   27721.9    360.7   0.292750598   3.47656   0.07810   0.65063  -1.74560
   8   27866.6    358.9   0.048728328   0.57567   0.00866   0.17857  -0.73736
   9   28476.2    351.2   0.040968011   0.47363   0.20544  -0.63479  -0.16871
  10   29258.4    341.8   0.011870305   0.13356   0.10851   0.13383  -0.32230
  11   30043.5    332.9   0.014360136   0.15736  -0.33244   0.16420   0.14099
  12   30333.7    329.7   0.663870901   7.20501   2.65129  -0.09096   0.40917
  13   30400.7    328.9   0.010185942   0.11030   0.16463  -0.03125   0.28675
  14   30588.6    326.9   0.005332796   0.05739  -0.07148  -0.06004  -0.22064
  15   31364.9    318.8   0.003874664   0.04067   0.20156   0.00655  -0.00119
  16   31822.8    314.2   0.294987053   3.05168  -1.58031   0.56999  -0.47897
  17   31911.2    313.4   0.043268436   0.44638   0.48634  -0.06194   0.45389
  18   31982.3    312.7   0.007757242   0.07985  -0.04917  -0.03356  -0.27624
  19   32417.0    308.5   0.156108970   1.58537  -1.16030   0.18455  -0.45280
  20   32831.1    304.6   0.219908866   2.20512  -0.37725   0.12799   1.43053
  21   33109.6    302.0   0.559801733   5.56616   0.57900   0.30041  -2.26731
  22   33727.5    296.5   0.026440678   0.25809   0.46154  -0.06824   0.20103
  23   33805.4    295.8   0.000657753   0.00641   0.04210   0.01739   0.06581
  24   34056.9    293.6   0.001306486   0.01263  -0.03002  -0.10219  -0.03585
  25   34837.9    287.0   0.252636941   2.38738   0.39947   0.25714  -1.47026
  26   35379.3    282.7   0.366836137   3.41349   1.45867  -0.44480   1.04304
  27   35959.9    278.1   0.083463792   0.76411   0.49858  -0.70295   0.14625
  28   36473.1    274.2   0.046595585   0.42058  -0.30814   0.03827   0.56936
  29   37234.6    268.6   0.007238121   0.06400  -0.00966  -0.04197   0.24928
  30   37830.7    264.3   0.126840222   1.10379  -0.18194   0.58725  -0.85196
  31   37869.7    264.1   0.100759000   0.87593  -0.38377   0.09837   0.84792
  32   38078.8    262.6   0.002644406   0.02286   0.04853  -0.01439  -0.14248
  33   38194.6    261.8   0.002530475   0.02181   0.01257   0.09342  -0.11369
  34   38606.0    259.0   0.002633899   0.02246   0.02879  -0.00288  -0.14705
  35   38806.0    257.7   0.157903773   1.33958  -0.73389   0.84712  -0.28876
  36   39175.2    255.3   0.002217826   0.01864   0.05422  -0.09461  -0.08213
  37   39563.7    252.8   0.014314301   0.11911   0.04824  -0.22834   0.25425
  38   39879.9    250.8   0.235252226   1.94203  -0.68076   1.03376  -0.64026

FINAL SINGLE POINT ENERGY     -9308.857024802666

DIPOLE MOMENT
-------------
                                X             Y             Z
Electronic contribution:    -91.79232     -74.48237      96.47046
Nuclear contribution   :     91.70312      74.48245     -96.80923
                        -----------------------------------------
Total Dipole Moment    :     -0.08921       0.00008      -0.33877
                        -----------------------------------------
Magnitude (a.u.)       :      0.35032
Magnitude (Debye)      :      0.89043

Rotational constants in cm-1:     0.001243     0.000150     0.000140
Rotational constants in MHz :    37.251443     4.501246     4.211228

                             ****ORCA TERMINATED NORMALLY****
TOTAL RUN TIME: 0 days 0 hours 13 minutes 25 seconds 222 msec
