                         Program Version 4.2.0 -  RELEASE  -
|  1> # ORCA input file
|  2> # SCF done       -204.999793726696          0.000406392604
|  3> ! CAM-B3LYP def2-SVP def2/J RIJCOSX Grid4 TightSCF
|  4> %maxcore 5000
|  5> %tddft
|  6>     Mode sTDDFT
|  7>     Ethresh 5.0
|  8>     maxcore 5000
|  9> end
| 10>
| 11> %pal
| 12>   nprocs 6
| 13>   end
| 14> * xyz 0 1
| 15>    C       -8.17611        -0.38796        -2.38077
| 16>    C       -7.19765        -1.33197        -2.56806
| 17>    C       -7.26476        -2.36246        -3.52845
| 18>    N       -7.25631        -3.22316        -4.28849
| 19>    C       -5.98267        -1.40970        -1.85661
| 20>    N       -4.96957        -1.54548        -1.33238
| 21>    C       -9.41393        -0.29622        -3.14909
| 22>    C      -10.13130         0.84789        -2.72312
| 23>    C      -11.34458         1.20518        -3.25843
| 24>    C      -11.88068         0.39041        -4.26103
| 25>    C      -11.15879        -0.75265        -4.67888
| 26>    C       -9.92944        -1.11119        -4.13993
| 27>    S      -12.00480        -1.62343        -5.92237
| 28>    C      -13.29890        -0.45617        -5.86376
| 29>    C      -13.10937         0.53565        -4.96171
| 30>   Br      -14.77911        -0.65952        -6.99752
| 31>    C       -9.37806         1.52815        -1.65001
| 32>    O       -9.71015         2.54479        -1.07660
| 33>    C       -8.16684         0.70295        -1.42764
| 34>    C       -7.23949         0.92505        -0.44357
| 35>    C       -7.27123         2.00261         0.46132
| 36>    C       -6.35640         2.12846         1.46494
| 37>    C       -6.35792         3.18753         2.39320
| 38>    O       -7.25397         4.20390         2.31181
| 39>    C       -7.02603         5.06258         3.33347
| 40>    C       -5.95904         4.59079         4.09884
| 41>    C       -5.52612         3.39566         3.49821
| 42>    O       -4.52185         2.59628         3.89268
| 43>    O       -5.38776         5.12206         5.21053
| 44>    C       -7.80465         6.23580         3.48323
| 45>    C       -8.77418         6.61660         2.60953
| 46>    C       -9.52517         7.80491         2.75552
| 47>    C      -10.43340         8.23412         1.83976
| 48>    C      -11.16224         9.43999         1.96172
| 49>    O      -11.05425        10.22496         3.07239
| 50>    C      -12.03391        10.05746         1.07978
| 51>    C      -12.67935         9.93945        -0.23250
| 52>    O      -12.61088         9.08437        -1.07578
| 53>    N      -13.45062        11.09678        -0.32023
| 54>    C      -13.38111        11.94877         0.78238
| 55>    O      -13.97910        12.98597         0.89853
| 56>    C      -12.45202        11.26299         1.68377
| 57>    C      -11.83126        11.33730         2.92188
| 58>    C      -11.91910        12.32600         3.92173
| 59>    C      -11.37355        12.18535         5.16798
| 60>    C      -11.41770        13.11470         6.21886
| 61>    C      -11.79056        14.44081         6.19199
| 62>    C      -11.83978        15.28241         7.33256
| 63>    C      -12.17633        16.57462         7.06663
| 64>    C      -12.39372        16.83242         5.69482
| 65>    S      -12.19483        15.37033         4.76236
| 66>    C      -12.69248        18.04864         5.10265
| 67>    C      -12.92615        19.28260         5.74775
| 68>    C      -13.15406        20.31493         4.88743
| 69>    C      -13.10401        19.94878         3.52243
| 70>    S      -12.77952        18.23985         3.36719
| 71>    C      -13.22170        20.80661         2.44755
| 72>    C      -13.14145        20.40818         1.11606
| 73>    C      -13.09910        21.22109         0.00530
| 74>    C      -12.85468        22.63072        -0.13388
| 75>    C      -12.13058        23.43436         0.71742
| 76>    C      -11.90075        24.80602         0.49686
| 77>    N      -11.69904        25.93101         0.38200
| 78>    C      -11.43106        22.97058         1.84869
| 79>    N      -10.80041        22.64887         2.75346
| 80>    C      -13.30897        23.02345        -1.46766
| 81>    C      -13.62892        21.85225        -2.19898
| 82>    C      -13.44951        20.67243        -1.32495
| 83>    O      -13.59408        19.50620        -1.61858
| 84>    C      -14.04510        21.88983        -3.50654
| 85>    C      -14.16195        23.14303        -4.11897
| 86>    C      -13.85491        24.30618        -3.37547
| 87>    C      -13.42539        24.26810        -2.05362
| 88>    S      -14.07714        25.74695        -4.32094
| 89>    C      -14.56764        24.77933        -5.68613
| 90>    C      -14.56829        23.44674        -5.44759
| 91>   Br      -15.03406        25.62114        -7.29632
| 92>    H      -11.86504         2.08443        -2.91242
| 93>    H       -9.42145        -1.99329        -4.49176
| 94>    H      -13.80588         1.33688        -4.79477
| 95>    H       -6.42325         0.22328        -0.32908
| 96>    H       -8.05098         2.74214         0.35970
| 97>    H       -5.57505         1.39352         1.60167
| 98>    H       -4.11408         2.97626         4.68248
| 99>    H       -5.82968         5.94386         5.44887
|100>    H       -7.58432         6.85604         4.34309
|101>    H       -8.97222         5.99262         1.74993
|102>    H       -9.34759         8.41062         3.63496
|103>    H      -10.62442         7.66783         0.94001
|104>    H      -14.02159        11.30495        -1.12707
|105>    H      -12.50059        13.19204         3.64681
|106>    H      -10.88824        11.24321         5.38854
|107>    H      -11.09698        12.75281         7.18817
|108>    H      -11.62436        14.90280         8.31585
|109>    H      -12.25292        17.34526         7.81181
|110>    H      -12.92338        19.37755         6.81846
|111>    H      -13.33914        21.33069         5.18736
|112>    H      -13.39333        21.84763         2.68196
|113>    H      -13.18627        19.34361         0.90592
|114>    H      -14.27280        20.98196        -4.04268
|115>    H      -13.20628        25.18201        -1.52683
|116>    H      -14.84334        22.70649        -6.17654
|117> *
|118>
|119>                          ****END OF INPUT****

CARTESIAN COORDINATES (ANGSTROEM)
---------------------------------
  C     -8.176110   -0.387960   -2.380770
  C     -7.197650   -1.331970   -2.568060
  C     -7.264760   -2.362460   -3.528450
  N     -7.256310   -3.223160   -4.288490
  C     -5.982670   -1.409700   -1.856610
  N     -4.969570   -1.545480   -1.332380
  C     -9.413930   -0.296220   -3.149090
  C    -10.131300    0.847890   -2.723120
  C    -11.344580    1.205180   -3.258430
  C    -11.880680    0.390410   -4.261030
  C    -11.158790   -0.752650   -4.678880
  C     -9.929440   -1.111190   -4.139930
  S    -12.004800   -1.623430   -5.922370
  C    -13.298900   -0.456170   -5.863760
  C    -13.109370    0.535650   -4.961710
  Br   -14.779110   -0.659520   -6.997520
  C     -9.378060    1.528150   -1.650010
  O     -9.710150    2.544790   -1.076600
  C     -8.166840    0.702950   -1.427640
  C     -7.239490    0.925050   -0.443570
  C     -7.271230    2.002610    0.461320
  C     -6.356400    2.128460    1.464940
  C     -6.357920    3.187530    2.393200
  O     -7.253970    4.203900    2.311810
  C     -7.026030    5.062580    3.333470
  C     -5.959040    4.590790    4.098840
  C     -5.526120    3.395660    3.498210
  O     -4.521850    2.596280    3.892680
  O     -5.387760    5.122060    5.210530
  C     -7.804650    6.235800    3.483230
  C     -8.774180    6.616600    2.609530
  C     -9.525170    7.804910    2.755520
  C    -10.433400    8.234120    1.839760
  C    -11.162240    9.439990    1.961720
  O    -11.054250   10.224960    3.072390
  C    -12.033910   10.057460    1.079780
  C    -12.679350    9.939450   -0.232500
  O    -12.610880    9.084370   -1.075780
  N    -13.450620   11.096780   -0.320230
  C    -13.381110   11.948770    0.782380
  O    -13.979100   12.985970    0.898530
  C    -12.452020   11.262990    1.683770
  C    -11.831260   11.337300    2.921880
  C    -11.919100   12.326000    3.921730
  C    -11.373550   12.185350    5.167980
  C    -11.417700   13.114700    6.218860
  C    -11.790560   14.440810    6.191990
  C    -11.839780   15.282410    7.332560
  C    -12.176330   16.574620    7.066630
  C    -12.393720   16.832420    5.694820
  S    -12.194830   15.370330    4.762360
  C    -12.692480   18.048640    5.102650
  C    -12.926150   19.282600    5.747750
  C    -13.154060   20.314930    4.887430
  C    -13.104010   19.948780    3.522430
  S    -12.779520   18.239850    3.367190
  C    -13.221700   20.806610    2.447550
  C    -13.141450   20.408180    1.116060
  C    -13.099100   21.221090    0.005300
  C    -12.854680   22.630720   -0.133880
  C    -12.130580   23.434360    0.717420
  C    -11.900750   24.806020    0.496860
  N    -11.699040   25.931010    0.382000
  C    -11.431060   22.970580    1.848690
  N    -10.800410   22.648870    2.753460
  C    -13.308970   23.023450   -1.467660
  C    -13.628920   21.852250   -2.198980
  C    -13.449510   20.672430   -1.324950
  O    -13.594080   19.506200   -1.618580
  C    -14.045100   21.889830   -3.506540
  C    -14.161950   23.143030   -4.118970
  C    -13.854910   24.306180   -3.375470
  C    -13.425390   24.268100   -2.053620
  S    -14.077140   25.746950   -4.320940
  C    -14.567640   24.779330   -5.686130
  C    -14.568290   23.446740   -5.447590
  Br   -15.034060   25.621140   -7.296320
  H    -11.865040    2.084430   -2.912420
  H     -9.421450   -1.993290   -4.491760
  H    -13.805880    1.336880   -4.794770
  H     -6.423250    0.223280   -0.329080
  H     -8.050980    2.742140    0.359700
  H     -5.575050    1.393520    1.601670
  H     -4.114080    2.976260    4.682480
  H     -5.829680    5.943860    5.448870
  H     -7.584320    6.856040    4.343090
  H     -8.972220    5.992620    1.749930
  H     -9.347590    8.410620    3.634960
  H    -10.624420    7.667830    0.940010
  H    -14.021590   11.304950   -1.127070
  H    -12.500590   13.192040    3.646810
  H    -10.888240   11.243210    5.388540
  H    -11.096980   12.752810    7.188170
  H    -11.624360   14.902800    8.315850
  H    -12.252920   17.345260    7.811810
  H    -12.923380   19.377550    6.818460
  H    -13.339140   21.330690    5.187360
  H    -13.393330   21.847630    2.681960
  H    -13.186270   19.343610    0.905920
  H    -14.272800   20.981960   -4.042680
  H    -13.206280   25.182010   -1.526830
  H    -14.843340   22.706490   -6.176540

 Total Charge           Charge          ....    0
 Multiplicity           Mult            ....    1
 Number of Electrons    NEL             ....  606
 Basis Dimension        Dim             .... 1255

ORBITAL ENERGIES
----------------

  NO   OCC          E(Eh)            E(eV)
   0   2.0000    -482.880984    -13139.8596
   1   2.0000    -482.879840    -13139.8285
   2   2.0000     -88.970350     -2421.0063
   3   2.0000     -88.969897     -2420.9940
   4   2.0000     -88.968390     -2420.9530
   5   2.0000     -88.965563     -2420.8760
   6   2.0000     -62.558712     -1702.3091
   7   2.0000     -62.557552     -1702.2775
   8   2.0000     -56.392654     -1534.5221
   9   2.0000     -56.391495     -1534.4906
  10   2.0000     -56.389952     -1534.4486
  11   2.0000     -56.389916     -1534.4476
  12   2.0000     -56.388794     -1534.4171
  13   2.0000     -56.388760     -1534.4162
  14   2.0000     -19.314288      -525.5685
  15   2.0000     -19.303862      -525.2848
  16   2.0000     -19.285936      -524.7970
  17   2.0000     -19.277781      -524.5751
  18   2.0000     -19.210553      -522.7457
  19   2.0000     -19.210325      -522.7395
  20   2.0000     -19.207955      -522.6750
  21   2.0000     -19.202952      -522.5389
  22   2.0000     -14.453882      -393.3101
  23   2.0000     -14.408151      -392.0657
  24   2.0000     -14.406411      -392.0184
  25   2.0000     -14.406278      -392.0148
  26   2.0000     -14.404304      -391.9610
  27   2.0000     -10.399914      -282.9960
  28   2.0000     -10.399758      -282.9918
  29   2.0000     -10.365868      -282.0696
  30   2.0000     -10.365213      -282.0518
  31   2.0000     -10.360234      -281.9163
  32   2.0000     -10.358545      -281.8703
  33   2.0000     -10.358289      -281.8634
  34   2.0000     -10.355078      -281.7760
  35   2.0000     -10.353749      -281.7398
  36   2.0000     -10.353510      -281.7333
  37   2.0000     -10.351709      -281.6843
  38   2.0000     -10.344576      -281.4902
  39   2.0000     -10.337684      -281.3027
  40   2.0000     -10.332658      -281.1659
  41   2.0000     -10.332629      -281.1651
  42   2.0000     -10.331893      -281.1451
  43   2.0000     -10.331714      -281.1402
  44   2.0000     -10.331095      -281.1234
  45   2.0000     -10.331058      -281.1224
  46   2.0000     -10.329998      -281.0935
  47   2.0000     -10.319062      -280.7959
  48   2.0000     -10.317606      -280.7563
  49   2.0000     -10.311512      -280.5905
  50   2.0000     -10.309964      -280.5484
  51   2.0000     -10.309672      -280.5404
  52   2.0000     -10.309451      -280.5344
  53   2.0000     -10.309343      -280.5315
  54   2.0000     -10.308145      -280.4989
  55   2.0000     -10.307777      -280.4889
  56   2.0000     -10.307320      -280.4764
  57   2.0000     -10.305645      -280.4309
  58   2.0000     -10.305465      -280.4260
  59   2.0000     -10.305290      -280.4212
  60   2.0000     -10.303935      -280.3843
  61   2.0000     -10.301869      -280.3281
  62   2.0000     -10.301171      -280.3091
  63   2.0000     -10.300796      -280.2989
  64   2.0000     -10.300680      -280.2958
  65   2.0000     -10.299931      -280.2754
  66   2.0000     -10.299697      -280.2690
  67   2.0000     -10.299538      -280.2647
  68   2.0000     -10.299111      -280.2531
  69   2.0000     -10.298876      -280.2467
  70   2.0000     -10.298416      -280.2341
  71   2.0000     -10.296791      -280.1899
  72   2.0000     -10.296774      -280.1895
  73   2.0000     -10.293918      -280.1118
  74   2.0000     -10.293900      -280.1113
  75   2.0000     -10.293332      -280.0958
  76   2.0000     -10.292540      -280.0742
  77   2.0000     -10.291288      -280.0402
  78   2.0000     -10.289893      -280.0022
  79   2.0000     -10.289434      -279.9897
  80   2.0000     -10.286037      -279.8973
  81   2.0000     -10.284440      -279.8538
  82   2.0000     -10.283764      -279.8355
  83   2.0000     -10.283163      -279.8191
  84   2.0000     -10.276699      -279.6432
  85   2.0000      -8.788149      -239.1377
  86   2.0000      -8.786975      -239.1057
  87   2.0000      -8.066234      -219.4934
  88   2.0000      -8.065844      -219.4828
  89   2.0000      -8.064423      -219.4441
  90   2.0000      -8.061906      -219.3756
  91   2.0000      -6.624419      -180.2596
  92   2.0000      -6.623238      -180.2275
  93   2.0000      -6.609886      -179.8641
  94   2.0000      -6.609718      -179.8596
  95   2.0000      -6.608729      -179.8326
  96   2.0000      -6.608537      -179.8274
  97   2.0000      -6.035880      -164.2446
  98   2.0000      -6.035538      -164.2353
  99   2.0000      -6.034133      -164.1971
 100   2.0000      -6.031779      -164.1330
 101   2.0000      -6.031510      -164.1257
 102   2.0000      -6.031270      -164.1192
 103   2.0000      -6.029842      -164.0803
 104   2.0000      -6.027499      -164.0166
 105   2.0000      -6.027375      -164.0132
 106   2.0000      -6.027076      -164.0051
 107   2.0000      -6.025618      -163.9654
 108   2.0000      -6.022983      -163.8937
 109   2.0000      -2.740306       -74.5675
 110   2.0000      -2.739115       -74.5351
 111   2.0000      -2.736233       -74.4567
 112   2.0000      -2.736060       -74.4520
 113   2.0000      -2.735021       -74.4237
 114   2.0000      -2.734925       -74.4211
 115   2.0000      -2.724527       -74.1382
 116   2.0000      -2.724518       -74.1379
 117   2.0000      -2.723368       -74.1066
 118   2.0000      -2.723348       -74.1061
 119   2.0000      -1.228154       -33.4198
 120   2.0000      -1.226545       -33.3760
 121   2.0000      -1.180927       -32.1347
 122   2.0000      -1.164722       -31.6937
 123   2.0000      -1.154985       -31.4287
 124   2.0000      -1.134518       -30.8718
 125   2.0000      -1.122382       -30.5416
 126   2.0000      -1.117503       -30.4088
 127   2.0000      -1.042551       -28.3692
 128   2.0000      -1.017705       -27.6932
 129   2.0000      -1.015685       -27.6382
 130   2.0000      -1.014237       -27.5988
 131   2.0000      -1.006117       -27.3778
 132   2.0000      -1.004325       -27.3291
 133   2.0000      -0.995305       -27.0836
 134   2.0000      -0.986268       -26.8377
 135   2.0000      -0.984113       -26.7791
 136   2.0000      -0.981538       -26.7090
 137   2.0000      -0.980109       -26.6701
 138   2.0000      -0.947205       -25.7748
 139   2.0000      -0.939414       -25.5628
 140   2.0000      -0.936349       -25.4793
 141   2.0000      -0.934511       -25.4293
 142   2.0000      -0.926285       -25.2055
 143   2.0000      -0.922504       -25.1026
 144   2.0000      -0.914580       -24.8870
 145   2.0000      -0.908958       -24.7340
 146   2.0000      -0.903951       -24.5977
 147   2.0000      -0.901414       -24.5287
 148   2.0000      -0.899788       -24.4845
 149   2.0000      -0.888962       -24.1899
 150   2.0000      -0.879896       -23.9432
 151   2.0000      -0.878903       -23.9162
 152   2.0000      -0.877534       -23.8789
 153   2.0000      -0.870305       -23.6822
 154   2.0000      -0.866705       -23.5842
 155   2.0000      -0.854581       -23.2543
 156   2.0000      -0.844289       -22.9743
 157   2.0000      -0.843733       -22.9591
 158   2.0000      -0.828172       -22.5357
 159   2.0000      -0.822609       -22.3843
 160   2.0000      -0.821013       -22.3409
 161   2.0000      -0.810720       -22.0608
 162   2.0000      -0.796180       -21.6652
 163   2.0000      -0.781065       -21.2539
 164   2.0000      -0.771838       -21.0028
 165   2.0000      -0.765633       -20.8339
 166   2.0000      -0.759731       -20.6733
 167   2.0000      -0.753628       -20.5073
 168   2.0000      -0.750172       -20.4132
 169   2.0000      -0.746408       -20.3108
 170   2.0000      -0.735576       -20.0160
 171   2.0000      -0.725212       -19.7340
 172   2.0000      -0.715256       -19.4631
 173   2.0000      -0.708708       -19.2849
 174   2.0000      -0.705434       -19.1958
 175   2.0000      -0.702657       -19.1203
 176   2.0000      -0.692380       -18.8406
 177   2.0000      -0.689292       -18.7566
 178   2.0000      -0.685030       -18.6406
 179   2.0000      -0.680239       -18.5102
 180   2.0000      -0.678375       -18.4595
 181   2.0000      -0.671552       -18.2739
 182   2.0000      -0.662385       -18.0244
 183   2.0000      -0.657987       -17.9047
 184   2.0000      -0.652078       -17.7439
 185   2.0000      -0.650133       -17.6910
 186   2.0000      -0.646836       -17.6013
 187   2.0000      -0.642778       -17.4909
 188   2.0000      -0.638211       -17.3666
 189   2.0000      -0.630254       -17.1501
 190   2.0000      -0.624930       -17.0052
 191   2.0000      -0.618911       -16.8414
 192   2.0000      -0.615558       -16.7502
 193   2.0000      -0.614382       -16.7182
 194   2.0000      -0.607820       -16.5396
 195   2.0000      -0.600540       -16.3415
 196   2.0000      -0.596628       -16.2351
 197   2.0000      -0.594355       -16.1732
 198   2.0000      -0.589148       -16.0315
 199   2.0000      -0.588424       -16.0118
 200   2.0000      -0.587032       -15.9740
 201   2.0000      -0.586372       -15.9560
 202   2.0000      -0.585629       -15.9358
 203   2.0000      -0.583725       -15.8840
 204   2.0000      -0.572896       -15.5893
 205   2.0000      -0.570425       -15.5221
 206   2.0000      -0.563862       -15.3435
 207   2.0000      -0.561858       -15.2889
 208   2.0000      -0.553989       -15.0748
 209   2.0000      -0.550904       -14.9909
 210   2.0000      -0.544120       -14.8063
 211   2.0000      -0.542390       -14.7592
 212   2.0000      -0.541754       -14.7419
 213   2.0000      -0.537706       -14.6317
 214   2.0000      -0.532768       -14.4974
 215   2.0000      -0.532254       -14.4834
 216   2.0000      -0.531204       -14.4548
 217   2.0000      -0.529881       -14.4188
 218   2.0000      -0.527122       -14.3437
 219   2.0000      -0.522863       -14.2278
 220   2.0000      -0.522284       -14.2121
 221   2.0000      -0.518299       -14.1036
 222   2.0000      -0.517173       -14.0730
 223   2.0000      -0.516508       -14.0549
 224   2.0000      -0.513383       -13.9699
 225   2.0000      -0.511233       -13.9114
 226   2.0000      -0.507917       -13.8211
 227   2.0000      -0.506339       -13.7782
 228   2.0000      -0.504317       -13.7232
 229   2.0000      -0.503214       -13.6932
 230   2.0000      -0.502648       -13.6777
 231   2.0000      -0.501893       -13.6572
 232   2.0000      -0.499721       -13.5981
 233   2.0000      -0.498084       -13.5536
 234   2.0000      -0.494892       -13.4667
 235   2.0000      -0.493527       -13.4296
 236   2.0000      -0.490435       -13.3454
 237   2.0000      -0.488141       -13.2830
 238   2.0000      -0.487946       -13.2777
 239   2.0000      -0.486406       -13.2358
 240   2.0000      -0.485780       -13.2187
 241   2.0000      -0.485070       -13.1994
 242   2.0000      -0.483189       -13.1482
 243   2.0000      -0.481982       -13.1154
 244   2.0000      -0.476651       -12.9703
 245   2.0000      -0.474252       -12.9050
 246   2.0000      -0.467192       -12.7129
 247   2.0000      -0.464584       -12.6420
 248   2.0000      -0.461340       -12.5537
 249   2.0000      -0.459819       -12.5123
 250   2.0000      -0.457857       -12.4589
 251   2.0000      -0.452199       -12.3050
 252   2.0000      -0.451083       -12.2746
 253   2.0000      -0.450953       -12.2711
 254   2.0000      -0.447754       -12.1840
 255   2.0000      -0.442251       -12.0342
 256   2.0000      -0.441929       -12.0255
 257   2.0000      -0.441828       -12.0228
 258   2.0000      -0.441546       -12.0151
 259   2.0000      -0.439268       -11.9531
 260   2.0000      -0.438883       -11.9426
 261   2.0000      -0.436956       -11.8902
 262   2.0000      -0.436061       -11.8658
 263   2.0000      -0.434402       -11.8207
 264   2.0000      -0.432405       -11.7663
 265   2.0000      -0.430437       -11.7128
 266   2.0000      -0.426909       -11.6168
 267   2.0000      -0.420528       -11.4432
 268   2.0000      -0.419130       -11.4051
 269   2.0000      -0.418650       -11.3920
 270   2.0000      -0.415908       -11.3174
 271   2.0000      -0.415256       -11.2997
 272   2.0000      -0.410863       -11.1801
 273   2.0000      -0.402396       -10.9498
 274   2.0000      -0.400258       -10.8916
 275   2.0000      -0.400010       -10.8848
 276   2.0000      -0.394653       -10.7391
 277   2.0000      -0.386295       -10.5116
 278   2.0000      -0.381582       -10.3834
 279   2.0000      -0.380682       -10.3589
 280   2.0000      -0.376213       -10.2373
 281   2.0000      -0.370417       -10.0796
 282   2.0000      -0.369567       -10.0564
 283   2.0000      -0.369372       -10.0511
 284   2.0000      -0.365978        -9.9588
 285   2.0000      -0.361408        -9.8344
 286   2.0000      -0.358753        -9.7622
 287   2.0000      -0.355046        -9.6613
 288   2.0000      -0.347230        -9.4486
 289   2.0000      -0.345048        -9.3892
 290   2.0000      -0.340961        -9.2780
 291   2.0000      -0.330774        -9.0008
 292   2.0000      -0.328907        -8.9500
 293   2.0000      -0.327221        -8.9041
 294   2.0000      -0.321223        -8.7409
 295   2.0000      -0.309112        -8.4114
 296   2.0000      -0.307354        -8.3635
 297   2.0000      -0.303604        -8.2615
 298   2.0000      -0.288279        -7.8445
 299   2.0000      -0.286447        -7.7946
 300   2.0000      -0.279880        -7.6159
 301   2.0000      -0.249053        -6.7771
 302   2.0000      -0.227745        -6.1972
 303   0.0000      -0.119235        -3.2446
 304   0.0000      -0.096186        -2.6174
 305   0.0000      -0.070679        -1.9233
 306   0.0000      -0.062408        -1.6982
 307   0.0000      -0.050463        -1.3732

MULLIKEN ATOMIC CHARGES
-----------------------
   0 C :    0.327558
   1 C :   -0.357498
   2 C :   -0.185528
   3 N :    0.144594
   4 C :   -0.195270
   5 N :    0.143670
   6 C :    0.012407
   7 C :   -0.013849
   8 C :   -0.072208
   9 C :    0.116730
  10 C :   -0.090620
  11 C :   -0.021415
  12 S :    0.183030
  13 C :   -0.123910
  14 C :    0.038427
  15 Br:    0.019796
  16 C :    0.142406
  17 O :   -0.156954
  18 C :   -0.069522
  19 C :   -0.038110
  20 C :   -0.000562
  21 C :   -0.002082
  22 C :    0.081326
  23 O :   -0.210150
  24 C :    0.120656
  25 C :    0.076039
  26 C :    0.106461
  27 O :   -0.158592
  28 O :   -0.192485
  29 C :   -0.062356
  30 C :    0.030476
  31 C :    0.034441
  32 C :   -0.031601
  33 C :    0.093008
  34 O :   -0.224409
  35 C :   -0.028489
  36 C :    0.163632
  37 O :   -0.140176
  38 N :   -0.167641
  39 C :    0.163244
  40 O :   -0.138691
  41 C :   -0.032412
  42 C :    0.086904
  43 C :   -0.030598
  44 C :    0.023551
  45 C :    0.004386
  46 C :   -0.027097
  47 C :    0.042562
  48 C :    0.028196
  49 C :   -0.034402
  50 S :    0.104637
  51 C :   -0.053019
  52 C :    0.035463
  53 C :    0.047693
  54 C :   -0.017719
  55 S :    0.123341
  56 C :   -0.003416
  57 C :    0.020845
  58 C :   -0.123121
  59 C :    0.285331
  60 C :   -0.343526
  61 C :   -0.176704
  62 N :    0.138200
  63 C :   -0.219650
  64 N :    0.157225
  65 C :    0.004881
  66 C :   -0.001825
  67 C :    0.136143
  68 O :   -0.148743
  69 C :   -0.074300
  70 C :    0.111576
  71 C :   -0.087542
  72 C :   -0.025743
  73 S :    0.180478
  74 C :   -0.126331
  75 C :    0.041849
  76 Br:    0.017401
  77 H :   -0.012118
  78 H :   -0.008406
  79 H :   -0.003102
  80 H :    0.010677
  81 H :    0.030673
  82 H :    0.024827
  83 H :    0.200002
  84 H :    0.194896
  85 H :   -0.026478
  86 H :    0.024231
  87 H :   -0.000856
  88 H :    0.020638
  89 H :    0.139686
  90 H :    0.025332
  91 H :   -0.000366
  92 H :   -0.004825
  93 H :   -0.003156
  94 H :   -0.003212
  95 H :   -0.001590
  96 H :    0.003716
  97 H :    0.012659
  98 H :    0.020799
  99 H :   -0.012608
 100 H :   -0.006657
 101 H :   -0.005061
Sum of atomic charges:   -0.0000000

LOEWDIN ATOMIC CHARGES
----------------------
   0 C :    0.075795
   1 C :   -0.147271
   2 C :   -0.018390
   3 N :   -0.060292
   4 C :   -0.020463
   5 N :   -0.059021
   6 C :   -0.020029
   7 C :   -0.049653
   8 C :    0.020315
   9 C :   -0.033581
  10 C :   -0.144706
  11 C :   -0.011190
  12 S :    0.430043
  13 C :   -0.272824
  14 C :   -0.070505
  15 Br:    0.133821
  16 C :    0.083566
  17 O :   -0.149866
  18 C :   -0.103213
  19 C :    0.065874
  20 C :   -0.036523
  21 C :    0.019877
  22 C :   -0.003077
  23 O :    0.012826
  24 C :    0.004087
  25 C :   -0.019218
  26 C :    0.014911
  27 O :   -0.031152
  28 O :   -0.056221
  29 C :   -0.046000
  30 C :   -0.005659
  31 C :   -0.003691
  32 C :   -0.035682
  33 C :    0.070597
  34 O :    0.005201
  35 C :   -0.094656
  36 C :    0.083682
  37 O :   -0.157938
  38 N :   -0.006474
  39 C :    0.083278
  40 O :   -0.156677
  41 C :   -0.091590
  42 C :    0.067602
  43 C :   -0.039486
  44 C :   -0.020369
  45 C :   -0.047413
  46 C :   -0.140816
  47 C :   -0.017238
  48 C :   -0.034042
  49 C :   -0.158243
  50 S :    0.414958
  51 C :   -0.179313
  52 C :   -0.010550
  53 C :   -0.025849
  54 C :   -0.104150
  55 S :    0.409811
  56 C :   -0.060741
  57 C :    0.051497
  58 C :   -0.099688
  59 C :    0.068366
  60 C :   -0.151239
  61 C :   -0.020060
  62 N :   -0.061667
  63 C :   -0.023925
  64 N :   -0.061394
  65 C :   -0.016813
  66 C :   -0.051037
  67 C :    0.078481
  68 O :   -0.149759
  69 C :    0.019846
  70 C :   -0.035742
  71 C :   -0.144538
  72 C :   -0.015446
  73 S :    0.428371
  74 C :   -0.274277
  75 C :   -0.070219
  76 Br:    0.132005
  77 H :    0.040267
  78 H :    0.040441
  79 H :    0.038699
  80 H :    0.041175
  81 H :    0.034309
  82 H :    0.048326
  83 H :    0.109221
  84 H :    0.101166
  85 H :    0.026738
  86 H :    0.041062
  87 H :    0.029497
  88 H :    0.049397
  89 H :    0.095298
  90 H :    0.031092
  91 H :    0.033925
  92 H :    0.038179
  93 H :    0.037309
  94 H :    0.035575
  95 H :    0.036542
  96 H :    0.041087
  97 H :    0.039079
  98 H :    0.038039
  99 H :    0.040190
 100 H :    0.039949
 101 H :    0.038201

  Mayer bond orders larger than 0.100000
B(  0-C ,  1-C ) :   1.6137 B(  0-C ,  6-C ) :   0.9978 B(  0-C , 18-C ) :   1.0816
B(  1-C ,  2-C ) :   1.1423 B(  1-C ,  4-C ) :   1.1511 B(  2-C ,  3-N ) :   2.9680
B(  4-C ,  5-N ) :   2.9649 B(  6-C ,  7-C ) :   1.2783 B(  6-C , 11-C ) :   1.4120
B(  7-C ,  8-C ) :   1.4241 B(  7-C , 16-C ) :   0.9412 B(  8-C ,  9-C ) :   1.2449
B(  8-C , 77-H ) :   1.0167 B(  9-C , 10-C ) :   1.3095 B(  9-C , 14-C ) :   1.1609
B( 10-C , 11-C ) :   1.3282 B( 10-C , 12-S ) :   1.0839 B( 11-C , 78-H ) :   0.9795
B( 12-S , 13-C ) :   1.0860 B( 13-C , 14-C ) :   1.6196 B( 13-C , 15-Br) :   1.0166
B( 14-C , 79-H ) :   1.0000 B( 16-C , 17-O ) :   2.1971 B( 16-C , 18-C ) :   0.9537
B( 18-C , 19-C ) :   1.5029 B( 19-C , 20-C ) :   1.1829 B( 19-C , 80-H ) :   0.9624
B( 20-C , 21-C ) :   1.4868 B( 20-C , 81-H ) :   0.9920 B( 21-C , 22-C ) :   1.1945
B( 21-C , 82-H ) :   0.9783 B( 22-C , 23-O ) :   1.1116 B( 22-C , 24-C ) :   0.1087
B( 22-C , 26-C ) :   1.3382 B( 23-O , 24-C ) :   1.1387 B( 24-C , 25-C ) :   1.2897
B( 24-C , 29-C ) :   1.1434 B( 25-C , 26-C ) :   1.2487 B( 25-C , 28-O ) :   1.2402
B( 26-C , 27-O ) :   1.2975 B( 27-O , 83-H ) :   0.9491 B( 28-O , 84-H ) :   0.9555
B( 29-C , 30-C ) :   1.6149 B( 29-C , 85-H ) :   0.9644 B( 30-C , 31-C ) :   1.1232
B( 30-C , 86-H ) :   0.9983 B( 31-C , 32-C ) :   1.5897 B( 31-C , 87-H ) :   0.9903
B( 32-C , 33-C ) :   1.1760 B( 32-C , 88-H ) :   0.9669 B( 33-C , 34-O ) :   1.1451
B( 33-C , 35-C ) :   1.3847 B( 34-O , 42-C ) :   1.1377 B( 35-C , 36-C ) :   0.8793
B( 35-C , 41-C ) :   1.2846 B( 36-C , 37-O ) :   2.2698 B( 36-C , 38-N ) :   1.0784
B( 38-N , 39-C ) :   1.0789 B( 38-N , 89-H ) :   0.9136 B( 39-C , 40-O ) :   2.2652
B( 39-C , 41-C ) :   0.8809 B( 41-C , 42-C ) :   1.3715 B( 42-C , 43-C ) :   1.2477
B( 43-C , 44-C ) :   1.5590 B( 43-C , 90-H ) :   0.9325 B( 44-C , 45-C ) :   1.2022
B( 44-C , 91-H ) :   0.9718 B( 45-C , 46-C ) :   1.5494 B( 45-C , 92-H ) :   0.9627
B( 46-C , 47-C ) :   1.1561 B( 46-C , 50-S ) :   1.0456 B( 47-C , 48-C ) :   1.5784
B( 47-C , 93-H ) :   0.9995 B( 48-C , 49-C ) :   1.1937 B( 48-C , 94-H ) :   0.9944
B( 49-C , 50-S ) :   1.0669 B( 49-C , 51-C ) :   1.4777 B( 51-C , 52-C ) :   1.2052
B( 51-C , 55-S ) :   1.0514 B( 52-C , 53-C ) :   1.5597 B( 52-C , 95-H ) :   0.9948
B( 53-C , 54-C ) :   1.1715 B( 53-C , 96-H ) :   0.9998 B( 54-C , 55-S ) :   1.0800
B( 54-C , 56-C ) :   1.5160 B( 56-C , 57-C ) :   1.2050 B( 56-C , 97-H ) :   0.9604
B( 57-C , 58-C ) :   1.5454 B( 57-C , 98-H ) :   0.9441 B( 58-C , 59-C ) :   1.0856
B( 58-C , 67-C ) :   0.9578 B( 59-C , 60-C ) :   1.5994 B( 59-C , 65-C ) :   1.0052
B( 60-C , 61-C ) :   1.1333 B( 60-C , 63-C ) :   1.1646 B( 61-C , 62-N ) :   2.9767
B( 63-C , 64-N ) :   3.0137 B( 65-C , 66-C ) :   1.2770 B( 65-C , 72-C ) :   1.4213
B( 66-C , 67-C ) :   0.9177 B( 66-C , 69-C ) :   1.4301 B( 67-C , 68-O ) :   2.2586
B( 69-C , 70-C ) :   1.2451 B( 69-C , 99-H ) :   1.0168 B( 70-C , 71-C ) :   1.3174
B( 70-C , 75-C ) :   1.1609 B( 71-C , 72-C ) :   1.3179 B( 71-C , 73-S ) :   1.0824
B( 72-C ,100-H ) :   0.9823 B( 73-S , 74-C ) :   1.0861 B( 74-C , 75-C ) :   1.6210
B( 74-C , 76-Br) :   1.0151 B( 75-C ,101-H ) :   0.9996

-----------------------------------------------------------------------------
         ABSORPTION SPECTRUM VIA TRANSITION ELECTRIC DIPOLE MOMENTS
-----------------------------------------------------------------------------
State   Energy  Wavelength   fosc         T2         TX        TY        TZ
        (cm-1)    (nm)                  (au**2)     (au)      (au)      (au)
-----------------------------------------------------------------------------
   0   10513.9    951.1   1.643263080  51.45405   1.23536  -6.98844   1.04388
   1   16385.8    610.3   0.957485162  19.23713   0.79972  -2.58154  -3.45445
   2   17862.5    559.8   0.063336022   1.16731  -0.04871   0.80500  -0.71896
   3   20271.6    493.3   0.082225416   1.33535   0.67106   0.58217  -0.73899
   4   21749.7    459.8   0.095011555   1.43813   0.75367   0.77507   0.51902
   5   23126.6    432.4   0.053703825   0.76448  -0.17137   0.09942  -0.85160
   6   23629.8    423.2   0.041166217   0.57353  -0.45983   0.43230   0.41857
   7   24479.3    408.5   0.103735885   1.39510   0.87307  -0.56665   0.55834
   8   25283.7    395.5   0.434316638   5.65511  -0.28280  -0.17806  -2.35445
   9   26156.9    382.3   0.017937894   0.22577   0.36595  -0.28906  -0.09105
  10   26574.3    376.3   0.041299453   0.51163  -0.10141   0.32767  -0.62768
  11   26883.9    372.0   0.065143581   0.79773   0.68623  -0.17431  -0.54445
  12   27874.2    358.8   0.008607970   0.10167  -0.16533   0.13009  -0.23960
  13   28030.4    356.8   0.060475454   0.71027   0.56244  -0.10365   0.61902
  14   28153.6    355.2   0.415023092   4.85303  -1.24532   0.18977  -1.80726
  15   28440.0    351.6   0.198395524   2.29656   1.01800  -0.23838   1.09700
  16   28682.8    348.6   0.390725636   4.48462   1.55943  -0.16954   1.42270
  17   29662.8    337.1   0.082499848   0.91562   0.69505  -0.35811   0.55162
  18   29750.5    336.1   0.194577854   2.15315  -0.81892   0.22931  -1.19580
  19   29951.7    333.9   0.147855664   1.62515  -0.21410   0.31857  -1.21566
  20   30552.1    327.3   0.045958665   0.49522  -0.48245  -0.03275  -0.51127
  21   31224.6    320.3   0.116518354   1.22850   0.94154  -0.09857   0.57645
  22   31741.6    315.0   0.012471374   0.12935   0.06523  -0.34869  -0.05925
  23   32225.4    310.3   0.802341753   8.19665   1.33126  -0.30757   2.51591
  24   32309.2    309.5   0.158031231   1.61024   0.99431  -0.19343   0.76431
  25   32900.6    303.9   0.050852751   0.50885  -0.48990   0.36411  -0.36914
  26   32939.8    303.6   0.018338796   0.18328   0.34539  -0.01726  -0.25237
  27   32989.5    303.1   0.034156202   0.34085  -0.56558   0.13073  -0.06234
  28   33316.6    300.2   0.533439054   5.27108  -2.03700   0.56825  -0.89377
  29   33377.6    299.6   0.001340863   0.01323   0.07328  -0.04746   0.07485
  30   33831.0    295.6   0.037011798   0.36016  -0.32654  -0.20755  -0.45876
  31   34507.6    289.8   0.024004008   0.22901  -0.04280   0.26266  -0.39772
  32   34721.9    288.0   0.093245853   0.88410  -0.44361  -0.26105  -0.78687
  33   35002.7    285.7   0.042862243   0.40313  -0.46084   0.07520  -0.43024
  34   35067.2    285.2   0.005251988   0.04931   0.10768  -0.08782  -0.17320
  35   35290.8    283.4   0.017262444   0.16103   0.24122  -0.31762  -0.04432
  36   35615.9    280.8   0.006573879   0.06076  -0.20697  -0.12029   0.05882
  37   35726.5    279.9   0.055242390   0.50905   0.50794  -0.41359   0.28282
  38   35852.4    278.9   0.015835232   0.14541  -0.07650   0.14854   0.34277
  39   36333.7    275.2   0.093731902   0.84929  -0.63998   0.66194  -0.03942
  40   36769.5    272.0   0.214920610   1.92427  -0.96479  -0.07112  -0.99418
  41   37574.0    266.1   0.043631010   0.38228  -0.03291   0.41071   0.46099
  42   37800.8    264.5   0.069239939   0.60302   0.32423   0.52883   0.46716
  43   38019.5    263.0   0.032752737   0.28361   0.23237   0.25888   0.40323
  44   38190.4    261.8   0.000258972   0.00223  -0.01740  -0.01563  -0.04105
  45   38289.1    261.2   0.033934356   0.29177  -0.37751  -0.29196  -0.25302
  46   38531.3    259.5   0.073743916   0.63007   0.31992  -0.64740  -0.32953
  47   38826.5    257.6   0.016296267   0.13818   0.34890  -0.11920   0.04728
  48   38989.1    256.5   0.065182790   0.55038   0.12582   0.42759   0.59306
  49   39231.2    254.9   0.018185960   0.15261  -0.00689   0.33867   0.19459
  50   39250.8    254.8   0.033600390   0.28182   0.00849  -0.38362  -0.36686
  51   39606.1    252.5   0.008396646   0.06979   0.13524  -0.22687   0.00573
  52   39714.0    251.8   0.319222029   2.64621   0.29140   1.02319   1.23060
  53   39876.8    250.8   0.041049476   0.33889  -0.39979   0.15293  -0.39455

FINAL SINGLE POINT ENERGY     -9836.986262710956

DIPOLE MOMENT
-------------
                                X             Y             Z
Electronic contribution:    -82.11931      30.66023    -173.78106
Nuclear contribution   :     80.90235     -30.16366     178.33776
                        -----------------------------------------
Total Dipole Moment    :     -1.21695       0.49657       4.55670
                        -----------------------------------------
Magnitude (a.u.)       :      4.74247
Magnitude (Debye)      :     12.05441

Rotational constants in cm-1:     0.000607     0.000135     0.000116
Rotational constants in MHz :    18.184932     4.037297     3.480095

                             ****ORCA TERMINATED NORMALLY****
TOTAL RUN TIME: 0 days 0 hours 10 minutes 59 seconds 324 msec
