                         Program Version 4.2.0 -  RELEASE  -
|  1> # ORCA input file
|  2> # SCF done       -189.473861917458          0.000813405322
|  3> ! CAM-B3LYP def2-SVP def2/J RIJCOSX Grid4 TightSCF
|  4> %maxcore 5000
|  5> %tddft
|  6>     Mode sTDDFT
|  7>     Ethresh 5.0
|  8>     maxcore 5000
|  9> end
| 10>
| 11> %pal
| 12>   nprocs 6
| 13>   end
| 14> * xyz 0 1
| 15>    C      -15.28209        -1.12040         2.50155
| 16>    C      -15.84860         0.02229         2.00853
| 17>    F      -16.98508         0.49183         2.53862
| 18>    C      -15.24810         0.71832         0.94055
| 19>    F      -15.82655         1.83449         0.47888
| 20>    C      -14.08902         0.26098         0.37773
| 21>    C      -13.48542        -0.91607         0.86013
| 22>    C      -14.08965        -1.61944         1.94214
| 23>    C      -13.49948        -2.80356         2.44469
| 24>    C      -12.34814        -3.27528         1.87497
| 25>    C      -11.75842        -2.57084         0.78459
| 26>    C      -12.29612        -1.41839         0.28648
| 27>    C      -10.56337        -3.29671         0.35005
| 28>    O       -9.79983        -2.99539        -0.56654
| 29>    C      -10.44050        -4.46195         1.22399
| 30>    C      -11.53069        -4.45181         2.17182
| 31>    C      -11.77221        -5.36439         3.16563
| 32>    C      -10.95929        -6.48758         3.42035
| 33>    N      -10.32384        -7.41357         3.65797
| 34>    C      -12.86245        -5.29470         4.05646
| 35>    N      -13.73121        -5.28972         4.80695
| 36>    C       -9.40863        -5.36302         1.08744
| 37>    N       -8.50674        -5.21394         0.11044
| 38>    C       -7.43597        -6.00658        -0.14349
| 39>    S       -7.13095        -7.40897         0.84261
| 40>    C       -5.76761        -7.79145        -0.15521
| 41>    N       -5.01132        -8.93076         0.16496
| 42>    O       -4.05630        -9.18696        -0.54219
| 43>    O       -5.37327        -9.57522         1.13135
| 44>    C       -5.57101        -6.90498        -1.17470
| 45>    C       -6.51094        -5.84824        -1.18887
| 46>    C       -6.41902        -4.82239        -2.18324
| 47>    C       -7.00942        -3.60080        -2.22005
| 48>    C       -6.79748        -2.65324        -3.24293
| 49>    S       -5.75899        -2.94668        -4.60206
| 50>    C       -5.89332        -1.31612        -5.18783
| 51>    C       -6.79334        -0.58155        -4.38772
| 52>    C       -7.31716        -1.34633        -3.30199
| 53>    C       -8.28849        -0.78808        -2.45089
| 54>    C       -8.72124         0.48423        -2.69310
| 55>    F       -9.67543         1.02166        -1.91157
| 56>    C       -8.21572         1.23739        -3.77339
| 57>    F       -8.69620         2.47346        -3.98910
| 58>    C       -7.27062         0.72102        -4.61590
| 59>    C       -5.13277        -0.92654        -6.30273
| 60>    C       -4.65008         0.33661        -6.53177
| 61>    C       -3.89867         0.68780        -7.65566
| 62>    C       -3.14122         1.83624        -7.74590
| 63>    C       -2.37379         2.27368        -8.84797
| 64>    C       -1.62026         3.38431        -8.60026
| 65>    C       -1.73710         3.86817        -7.28053
| 66>    S       -2.90047         2.91906        -6.38601
| 67>    C       -0.99659         4.86669        -6.67013
| 68>    C        0.01236         5.67126        -7.24402
| 69>    C        0.65612         6.47816        -6.35465
| 70>    C        0.19280         6.35310        -5.02140
| 71>    S       -1.13793         5.20497        -4.96235
| 72>    C        0.64336         6.91982        -3.85738
| 73>    C        1.73025         7.79168        -3.66885
| 74>    S        2.76486         8.48489        -4.90875
| 75>    C        3.76548         9.32761        -3.79430
| 76>    C        3.34425         9.10297        -2.50564
| 77>    C        2.20348         8.24690        -2.44816
| 78>    O        1.82225         8.03517        -1.17239
| 79>    C        2.70381         8.74308        -0.41561
| 80>    N        2.54732         8.69581         0.99235
| 81>    O        3.35029         9.33457         1.64528
| 82>    O        1.64030         8.03061         1.44094
| 83>    C        3.64578         9.41115        -1.14947
| 84>    H      -15.75468        -1.63970         3.32063
| 85>    H      -13.63878         0.80545        -0.43752
| 86>    H      -13.97878        -3.30810         3.26785
| 87>    H      -11.82577        -0.89599        -0.53281
| 88>    H       -9.28781        -6.20804         1.75228
| 89>    H       -8.69232        -4.41077        -0.50944
| 90>    H       -4.76479        -7.00463        -1.87913
| 91>    H       -5.73786        -5.06317        -2.99044
| 92>    H       -7.64186        -3.24727        -1.42268
| 93>    H       -8.72832        -1.35524        -1.64731
| 94>    H       -6.93583         1.30317        -5.45765
| 95>    H       -4.82191        -1.71995        -6.97108
| 96>    H       -4.77837         1.09435        -5.77021
| 97>    H       -3.87311         0.00883        -8.49772
| 98>    H       -2.39388         1.75075        -9.78779
| 99>    H       -0.97017         3.84645        -9.32099
|100>    H        0.24399         5.62853        -8.29307
|101>    H        1.45419         7.14655        -6.62068
|102>    H        0.13528         6.64871        -2.94075
|103>    H        4.58265         9.91876        -4.15098
|104>    H        4.43141        10.02398        -0.75923
|105> *
|106>
|107>                          ****END OF INPUT****

CARTESIAN COORDINATES (ANGSTROEM)
---------------------------------
  C    -15.282090   -1.120400    2.501550
  C    -15.848600    0.022290    2.008530
  F    -16.985080    0.491830    2.538620
  C    -15.248100    0.718320    0.940550
  F    -15.826550    1.834490    0.478880
  C    -14.089020    0.260980    0.377730
  C    -13.485420   -0.916070    0.860130
  C    -14.089650   -1.619440    1.942140
  C    -13.499480   -2.803560    2.444690
  C    -12.348140   -3.275280    1.874970
  C    -11.758420   -2.570840    0.784590
  C    -12.296120   -1.418390    0.286480
  C    -10.563370   -3.296710    0.350050
  O     -9.799830   -2.995390   -0.566540
  C    -10.440500   -4.461950    1.223990
  C    -11.530690   -4.451810    2.171820
  C    -11.772210   -5.364390    3.165630
  C    -10.959290   -6.487580    3.420350
  N    -10.323840   -7.413570    3.657970
  C    -12.862450   -5.294700    4.056460
  N    -13.731210   -5.289720    4.806950
  C     -9.408630   -5.363020    1.087440
  N     -8.506740   -5.213940    0.110440
  C     -7.435970   -6.006580   -0.143490
  S     -7.130950   -7.408970    0.842610
  C     -5.767610   -7.791450   -0.155210
  N     -5.011320   -8.930760    0.164960
  O     -4.056300   -9.186960   -0.542190
  O     -5.373270   -9.575220    1.131350
  C     -5.571010   -6.904980   -1.174700
  C     -6.510940   -5.848240   -1.188870
  C     -6.419020   -4.822390   -2.183240
  C     -7.009420   -3.600800   -2.220050
  C     -6.797480   -2.653240   -3.242930
  S     -5.758990   -2.946680   -4.602060
  C     -5.893320   -1.316120   -5.187830
  C     -6.793340   -0.581550   -4.387720
  C     -7.317160   -1.346330   -3.301990
  C     -8.288490   -0.788080   -2.450890
  C     -8.721240    0.484230   -2.693100
  F     -9.675430    1.021660   -1.911570
  C     -8.215720    1.237390   -3.773390
  F     -8.696200    2.473460   -3.989100
  C     -7.270620    0.721020   -4.615900
  C     -5.132770   -0.926540   -6.302730
  C     -4.650080    0.336610   -6.531770
  C     -3.898670    0.687800   -7.655660
  C     -3.141220    1.836240   -7.745900
  C     -2.373790    2.273680   -8.847970
  C     -1.620260    3.384310   -8.600260
  C     -1.737100    3.868170   -7.280530
  S     -2.900470    2.919060   -6.386010
  C     -0.996590    4.866690   -6.670130
  C      0.012360    5.671260   -7.244020
  C      0.656120    6.478160   -6.354650
  C      0.192800    6.353100   -5.021400
  S     -1.137930    5.204970   -4.962350
  C      0.643360    6.919820   -3.857380
  C      1.730250    7.791680   -3.668850
  S      2.764860    8.484890   -4.908750
  C      3.765480    9.327610   -3.794300
  C      3.344250    9.102970   -2.505640
  C      2.203480    8.246900   -2.448160
  O      1.822250    8.035170   -1.172390
  C      2.703810    8.743080   -0.415610
  N      2.547320    8.695810    0.992350
  O      3.350290    9.334570    1.645280
  O      1.640300    8.030610    1.440940
  C      3.645780    9.411150   -1.149470
  H    -15.754680   -1.639700    3.320630
  H    -13.638780    0.805450   -0.437520
  H    -13.978780   -3.308100    3.267850
  H    -11.825770   -0.895990   -0.532810
  H     -9.287810   -6.208040    1.752280
  H     -8.692320   -4.410770   -0.509440
  H     -4.764790   -7.004630   -1.879130
  H     -5.737860   -5.063170   -2.990440
  H     -7.641860   -3.247270   -1.422680
  H     -8.728320   -1.355240   -1.647310
  H     -6.935830    1.303170   -5.457650
  H     -4.821910   -1.719950   -6.971080
  H     -4.778370    1.094350   -5.770210
  H     -3.873110    0.008830   -8.497720
  H     -2.393880    1.750750   -9.787790
  H     -0.970170    3.846450   -9.320990
  H      0.243990    5.628530   -8.293070
  H      1.454190    7.146550   -6.620680
  H      0.135280    6.648710   -2.940750
  H      4.582650    9.918760   -4.150980
  H      4.431410   10.023980   -0.759230

 Total Charge           Charge          ....    0
 Multiplicity           Mult            ....    1
 Number of Electrons    NEL             ....  514
 Basis Dimension        Dim             .... 1091

ORBITAL ENERGIES
----------------

  NO   OCC          E(Eh)            E(eV)
   0   2.0000     -88.992859     -2421.6188
   1   2.0000     -88.981487     -2421.3094
   2   2.0000     -88.972787     -2421.0726
   3   2.0000     -88.951743     -2420.5000
   4   2.0000     -88.949796     -2420.4470
   5   2.0000     -24.801979      -674.8962
   6   2.0000     -24.801685      -674.8881
   7   2.0000     -24.792102      -674.6274
   8   2.0000     -24.787677      -674.5070
   9   2.0000     -19.312875      -525.5301
  10   2.0000     -19.246661      -523.7283
  11   2.0000     -19.244451      -523.6681
  12   2.0000     -19.243042      -523.6298
  13   2.0000     -19.242491      -523.6148
  14   2.0000     -19.241450      -523.5865
  15   2.0000     -14.658260      -398.8715
  16   2.0000     -14.653887      -398.7525
  17   2.0000     -14.505867      -394.7247
  18   2.0000     -14.424790      -392.5185
  19   2.0000     -14.420016      -392.3886
  20   2.0000     -10.390819      -282.7486
  21   2.0000     -10.388825      -282.6943
  22   2.0000     -10.386181      -282.6224
  23   2.0000     -10.385853      -282.6134
  24   2.0000     -10.377490      -282.3859
  25   2.0000     -10.375177      -282.3229
  26   2.0000     -10.369743      -282.1750
  27   2.0000     -10.368995      -282.1547
  28   2.0000     -10.352288      -281.7001
  29   2.0000     -10.350804      -281.6597
  30   2.0000     -10.350307      -281.6462
  31   2.0000     -10.348101      -281.5861
  32   2.0000     -10.326941      -281.0103
  33   2.0000     -10.323404      -280.9141
  34   2.0000     -10.323060      -280.9047
  35   2.0000     -10.318558      -280.7822
  36   2.0000     -10.318171      -280.7717
  37   2.0000     -10.317741      -280.7600
  38   2.0000     -10.317116      -280.7430
  39   2.0000     -10.316585      -280.7286
  40   2.0000     -10.316580      -280.7284
  41   2.0000     -10.316194      -280.7179
  42   2.0000     -10.315707      -280.7047
  43   2.0000     -10.315311      -280.6939
  44   2.0000     -10.314825      -280.6807
  45   2.0000     -10.313951      -280.6569
  46   2.0000     -10.313442      -280.6430
  47   2.0000     -10.311795      -280.5982
  48   2.0000     -10.311788      -280.5980
  49   2.0000     -10.309198      -280.5275
  50   2.0000     -10.307875      -280.4915
  51   2.0000     -10.306041      -280.4416
  52   2.0000     -10.305351      -280.4229
  53   2.0000     -10.303579      -280.3746
  54   2.0000     -10.302709      -280.3510
  55   2.0000     -10.299171      -280.2547
  56   2.0000     -10.298824      -280.2453
  57   2.0000     -10.297778      -280.2168
  58   2.0000     -10.296779      -280.1896
  59   2.0000     -10.296721      -280.1880
  60   2.0000     -10.295801      -280.1630
  61   2.0000     -10.295183      -280.1462
  62   2.0000     -10.293036      -280.0877
  63   2.0000     -10.292623      -280.0765
  64   2.0000     -10.291594      -280.0485
  65   2.0000     -10.291173      -280.0371
  66   2.0000     -10.288360      -279.9605
  67   2.0000     -10.287114      -279.9266
  68   2.0000     -10.286414      -279.9076
  69   2.0000      -8.087986      -220.0853
  70   2.0000      -8.076010      -219.7594
  71   2.0000      -8.068069      -219.5433
  72   2.0000      -8.048186      -219.0023
  73   2.0000      -8.046373      -218.9530
  74   2.0000      -6.057627      -164.8364
  75   2.0000      -6.053261      -164.7176
  76   2.0000      -6.049480      -164.6147
  77   2.0000      -6.045375      -164.5030
  78   2.0000      -6.041000      -164.3840
  79   2.0000      -6.038419      -164.3137
  80   2.0000      -6.037023      -164.2758
  81   2.0000      -6.033074      -164.1683
  82   2.0000      -6.030740      -164.1048
  83   2.0000      -6.017863      -163.7544
  84   2.0000      -6.016176      -163.7085
  85   2.0000      -6.013912      -163.6469
  86   2.0000      -6.012147      -163.5988
  87   2.0000      -6.009103      -163.5160
  88   2.0000      -6.007078      -163.4609
  89   2.0000      -1.330067       -36.1930
  90   2.0000      -1.324940       -36.0535
  91   2.0000      -1.324162       -36.0323
  92   2.0000      -1.311147       -35.6781
  93   2.0000      -1.310032       -35.6478
  94   2.0000      -1.296079       -35.2681
  95   2.0000      -1.233434       -33.5635
  96   2.0000      -1.157034       -31.4845
  97   2.0000      -1.146621       -31.2012
  98   2.0000      -1.143399       -31.1135
  99   2.0000      -1.111268       -30.2391
 100   2.0000      -1.027870       -27.9698
 101   2.0000      -1.013979       -27.5918
 102   2.0000      -1.011784       -27.5320
 103   2.0000      -1.008073       -27.4311
 104   2.0000      -1.005115       -27.3506
 105   2.0000      -1.000969       -27.2378
 106   2.0000      -0.999357       -27.1939
 107   2.0000      -0.988411       -26.8960
 108   2.0000      -0.980395       -26.6779
 109   2.0000      -0.947885       -25.7933
 110   2.0000      -0.939108       -25.5544
 111   2.0000      -0.938930       -25.5496
 112   2.0000      -0.931183       -25.3388
 113   2.0000      -0.919132       -25.0109
 114   2.0000      -0.910144       -24.7663
 115   2.0000      -0.903876       -24.5957
 116   2.0000      -0.899253       -24.4699
 117   2.0000      -0.895247       -24.3609
 118   2.0000      -0.886414       -24.1205
 119   2.0000      -0.879908       -23.9435
 120   2.0000      -0.867301       -23.6005
 121   2.0000      -0.860542       -23.4165
 122   2.0000      -0.853719       -23.2309
 123   2.0000      -0.849898       -23.1269
 124   2.0000      -0.847597       -23.0643
 125   2.0000      -0.839783       -22.8517
 126   2.0000      -0.835986       -22.7483
 127   2.0000      -0.824047       -22.4235
 128   2.0000      -0.819706       -22.3053
 129   2.0000      -0.803811       -21.8728
 130   2.0000      -0.789081       -21.4720
 131   2.0000      -0.778637       -21.1878
 132   2.0000      -0.777781       -21.1645
 133   2.0000      -0.765895       -20.8411
 134   2.0000      -0.753580       -20.5060
 135   2.0000      -0.745744       -20.2927
 136   2.0000      -0.738329       -20.0910
 137   2.0000      -0.733467       -19.9586
 138   2.0000      -0.727579       -19.7984
 139   2.0000      -0.717693       -19.5294
 140   2.0000      -0.711852       -19.3705
 141   2.0000      -0.710245       -19.3267
 142   2.0000      -0.701999       -19.1024
 143   2.0000      -0.692095       -18.8329
 144   2.0000      -0.685999       -18.6670
 145   2.0000      -0.682425       -18.5697
 146   2.0000      -0.671819       -18.2811
 147   2.0000      -0.665311       -18.1040
 148   2.0000      -0.660405       -17.9705
 149   2.0000      -0.656504       -17.8644
 150   2.0000      -0.648931       -17.6583
 151   2.0000      -0.647741       -17.6259
 152   2.0000      -0.645070       -17.5532
 153   2.0000      -0.643492       -17.5103
 154   2.0000      -0.643003       -17.4970
 155   2.0000      -0.635702       -17.2983
 156   2.0000      -0.635249       -17.2860
 157   2.0000      -0.634376       -17.2622
 158   2.0000      -0.631165       -17.1749
 159   2.0000      -0.628088       -17.0912
 160   2.0000      -0.620834       -16.8938
 161   2.0000      -0.617435       -16.8012
 162   2.0000      -0.613086       -16.6829
 163   2.0000      -0.612202       -16.6589
 164   2.0000      -0.610425       -16.6105
 165   2.0000      -0.603668       -16.4267
 166   2.0000      -0.596240       -16.2245
 167   2.0000      -0.590732       -16.0746
 168   2.0000      -0.589577       -16.0432
 169   2.0000      -0.589024       -16.0282
 170   2.0000      -0.584013       -15.8918
 171   2.0000      -0.577769       -15.7219
 172   2.0000      -0.576180       -15.6787
 173   2.0000      -0.574317       -15.6280
 174   2.0000      -0.570971       -15.5369
 175   2.0000      -0.570159       -15.5148
 176   2.0000      -0.568726       -15.4758
 177   2.0000      -0.565171       -15.3791
 178   2.0000      -0.562041       -15.2939
 179   2.0000      -0.559285       -15.2189
 180   2.0000      -0.555569       -15.1178
 181   2.0000      -0.550901       -14.9908
 182   2.0000      -0.550863       -14.9897
 183   2.0000      -0.545156       -14.8344
 184   2.0000      -0.540677       -14.7126
 185   2.0000      -0.539375       -14.6771
 186   2.0000      -0.538509       -14.6536
 187   2.0000      -0.536200       -14.5907
 188   2.0000      -0.534551       -14.5459
 189   2.0000      -0.528620       -14.3845
 190   2.0000      -0.523998       -14.2587
 191   2.0000      -0.523426       -14.2431
 192   2.0000      -0.520283       -14.1576
 193   2.0000      -0.515073       -14.0158
 194   2.0000      -0.512513       -13.9462
 195   2.0000      -0.510557       -13.8930
 196   2.0000      -0.510187       -13.8829
 197   2.0000      -0.507016       -13.7966
 198   2.0000      -0.506272       -13.7764
 199   2.0000      -0.503685       -13.7060
 200   2.0000      -0.502008       -13.6603
 201   2.0000      -0.497003       -13.5241
 202   2.0000      -0.495486       -13.4829
 203   2.0000      -0.487705       -13.2711
 204   2.0000      -0.484395       -13.1811
 205   2.0000      -0.481140       -13.0925
 206   2.0000      -0.478551       -13.0220
 207   2.0000      -0.477461       -12.9924
 208   2.0000      -0.472812       -12.8659
 209   2.0000      -0.470598       -12.8056
 210   2.0000      -0.469561       -12.7774
 211   2.0000      -0.466061       -12.6822
 212   2.0000      -0.463523       -12.6131
 213   2.0000      -0.458840       -12.4857
 214   2.0000      -0.457653       -12.4534
 215   2.0000      -0.457135       -12.4393
 216   2.0000      -0.453404       -12.3377
 217   2.0000      -0.452264       -12.3067
 218   2.0000      -0.449669       -12.2361
 219   2.0000      -0.440353       -11.9826
 220   2.0000      -0.439979       -11.9724
 221   2.0000      -0.437084       -11.8936
 222   2.0000      -0.434633       -11.8270
 223   2.0000      -0.433899       -11.8070
 224   2.0000      -0.433479       -11.7956
 225   2.0000      -0.429803       -11.6955
 226   2.0000      -0.428999       -11.6737
 227   2.0000      -0.425996       -11.5919
 228   2.0000      -0.421342       -11.4653
 229   2.0000      -0.416643       -11.3374
 230   2.0000      -0.413050       -11.2397
 231   2.0000      -0.406349       -11.0573
 232   2.0000      -0.401899       -10.9362
 233   2.0000      -0.397281       -10.8106
 234   2.0000      -0.392407       -10.6779
 235   2.0000      -0.390310       -10.6209
 236   2.0000      -0.389148       -10.5892
 237   2.0000      -0.384369       -10.4592
 238   2.0000      -0.382402       -10.4057
 239   2.0000      -0.378103       -10.2887
 240   2.0000      -0.374259       -10.1841
 241   2.0000      -0.371305       -10.1037
 242   2.0000      -0.366167        -9.9639
 243   2.0000      -0.364864        -9.9285
 244   2.0000      -0.350270        -9.5313
 245   2.0000      -0.346378        -9.4254
 246   2.0000      -0.336637        -9.1604
 247   2.0000      -0.331986        -9.0338
 248   2.0000      -0.330444        -8.9918
 249   2.0000      -0.326268        -8.8782
 250   2.0000      -0.321972        -8.7613
 251   2.0000      -0.317867        -8.6496
 252   2.0000      -0.309073        -8.4103
 253   2.0000      -0.295567        -8.0428
 254   2.0000      -0.284477        -7.7410
 255   2.0000      -0.247692        -6.7400
 256   2.0000      -0.207665        -5.6509
 257   0.0000      -0.103888        -2.8269
 258   0.0000      -0.092265        -2.5107
 259   0.0000      -0.076462        -2.0806
 260   0.0000      -0.067412        -1.8344
 261   0.0000      -0.052898        -1.4394

MULLIKEN ATOMIC CHARGES
-----------------------
   0 C :   -0.105920
   1 C :    0.242808
   2 F :   -0.168596
   3 C :    0.239193
   4 F :   -0.169155
   5 C :   -0.102038
   6 C :    0.106665
   7 C :    0.112742
   8 C :   -0.082203
   9 C :    0.045707
  10 C :    0.005744
  11 C :   -0.076224
  12 C :    0.190308
  13 O :   -0.234022
  14 C :   -0.126301
  15 C :    0.332198
  16 C :   -0.343570
  17 C :   -0.199171
  18 N :    0.147743
  19 C :   -0.182247
  20 N :    0.153053
  21 C :    0.024979
  22 N :    0.008714
  23 C :   -0.141336
  24 S :    0.169134
  25 C :    0.017101
  26 N :    0.273721
  27 O :   -0.245263
  28 O :   -0.252063
  29 C :   -0.004953
  30 C :    0.152340
  31 C :   -0.051006
  32 C :    0.016143
  33 C :   -0.122659
  34 S :    0.147209
  35 C :   -0.111344
  36 C :    0.128923
  37 C :    0.121046
  38 C :   -0.112331
  39 C :    0.227192
  40 F :   -0.185976
  41 C :    0.222565
  42 F :   -0.180660
  43 C :   -0.120474
  44 C :    0.009772
  45 C :   -0.007594
  46 C :   -0.016458
  47 C :   -0.021400
  48 C :    0.033850
  49 C :    0.027991
  50 C :   -0.046657
  51 S :    0.078925
  52 C :   -0.047503
  53 C :    0.020068
  54 C :    0.025632
  55 C :   -0.069567
  56 S :    0.097652
  57 C :    0.031899
  58 C :   -0.181419
  59 S :    0.121830
  60 C :   -0.130061
  61 C :    0.127519
  62 C :    0.186247
  63 O :   -0.181929
  64 C :    0.236760
  65 N :    0.271734
  66 O :   -0.247820
  67 O :   -0.227073
  68 C :   -0.069269
  69 H :    0.009152
  70 H :    0.006093
  71 H :   -0.004179
  72 H :   -0.010507
  73 H :    0.050751
  74 H :    0.173786
  75 H :    0.015637
  76 H :   -0.009420
  77 H :   -0.010102
  78 H :   -0.017444
  79 H :   -0.007905
  80 H :   -0.008163
  81 H :    0.016077
  82 H :   -0.010476
  83 H :   -0.010721
  84 H :   -0.011263
  85 H :   -0.010753
  86 H :   -0.004518
  87 H :    0.006343
  88 H :    0.033338
  89 H :    0.013424
Sum of atomic charges:   -0.0000000

LOEWDIN ATOMIC CHARGES
----------------------
   0 C :   -0.028682
   1 C :    0.069110
   2 F :   -0.046812
   3 C :    0.068475
   4 F :   -0.047258
   5 C :   -0.029744
   6 C :   -0.009912
   7 C :   -0.005316
   8 C :    0.020261
   9 C :   -0.020180
  10 C :   -0.054650
  11 C :    0.035755
  12 C :    0.101890
  13 O :   -0.182653
  14 C :   -0.143249
  15 C :    0.078031
  16 C :   -0.146166
  17 C :   -0.021178
  18 N :   -0.050536
  19 C :   -0.019115
  20 N :   -0.052041
  21 C :    0.111734
  22 N :    0.088537
  23 C :   -0.118928
  24 S :    0.471480
  25 C :   -0.200276
  26 N :    0.273079
  27 O :   -0.210951
  28 O :   -0.219080
  29 C :    0.001137
  30 C :   -0.078078
  31 C :   -0.048389
  32 C :   -0.036340
  33 C :   -0.184226
  34 S :    0.472325
  35 C :   -0.164388
  36 C :   -0.047433
  37 C :   -0.036797
  38 C :   -0.038982
  39 C :    0.060047
  40 F :   -0.063033
  41 C :    0.058299
  42 F :   -0.058684
  43 C :   -0.039131
  44 C :   -0.048024
  45 C :   -0.029751
  46 C :   -0.058800
  47 C :   -0.141882
  48 C :   -0.035735
  49 C :   -0.029723
  50 C :   -0.177853
  51 S :    0.376904
  52 C :   -0.179344
  53 C :   -0.020190
  54 C :   -0.049561
  55 C :   -0.148361
  56 S :    0.379434
  57 C :   -0.070062
  58 C :   -0.197101
  59 S :    0.472357
  60 C :   -0.187428
  61 C :   -0.082993
  62 C :    0.020082
  63 O :    0.002826
  64 C :    0.027766
  65 N :    0.271444
  66 O :   -0.209009
  67 O :   -0.188960
  68 C :   -0.009596
  69 H :    0.048416
  70 H :    0.047390
  71 H :    0.041171
  72 H :    0.041045
  73 H :    0.036206
  74 H :    0.086114
  75 H :    0.047420
  76 H :    0.024925
  77 H :    0.027779
  78 H :    0.035485
  79 H :    0.041489
  80 H :    0.030227
  81 H :    0.024905
  82 H :    0.033803
  83 H :    0.034147
  84 H :    0.032346
  85 H :    0.033364
  86 H :    0.019464
  87 H :    0.043266
  88 H :    0.029286
  89 H :    0.047360

  Mayer bond orders larger than 0.100000
B(  0-C ,  1-C ) :   1.4357 B(  0-C ,  5-C ) :   0.1074 B(  0-C ,  7-C ) :   1.1954
B(  0-C , 69-H ) :   1.0062 B(  1-C ,  2-F ) :   1.1384 B(  1-C ,  3-C ) :   1.1933
B(  3-C ,  4-F ) :   1.1369 B(  3-C ,  5-C ) :   1.4386 B(  5-C ,  6-C ) :   1.1947
B(  5-C , 70-H ) :   1.0074 B(  6-C ,  7-C ) :   1.2590 B(  6-C , 11-C ) :   1.1895
B(  7-C ,  8-C ) :   1.2055 B(  8-C ,  9-C ) :   1.4684 B(  8-C , 71-H ) :   0.9896
B(  9-C , 10-C ) :   1.2179 B(  9-C , 15-C ) :   0.9855 B( 10-C , 11-C ) :   1.4614
B( 10-C , 12-C ) :   0.9800 B( 11-C , 72-H ) :   1.0178 B( 12-C , 13-O ) :   1.9524
B( 12-C , 14-C ) :   1.0299 B( 13-O , 74-H ) :   0.1268 B( 14-C , 15-C ) :   1.1030
B( 14-C , 21-C ) :   1.4294 B( 15-C , 16-C ) :   1.6293 B( 16-C , 17-C ) :   1.1481
B( 16-C , 19-C ) :   1.1479 B( 17-C , 18-N ) :   2.9528 B( 19-C , 20-N ) :   2.9623
B( 21-C , 22-N ) :   1.3512 B( 21-C , 73-H ) :   0.9292 B( 22-N , 23-C ) :   1.1880
B( 22-N , 74-H ) :   0.8354 B( 23-C , 24-S ) :   1.1314 B( 23-C , 30-C ) :   1.3627
B( 24-S , 25-C ) :   1.0847 B( 25-C , 26-N ) :   0.9587 B( 25-C , 29-C ) :   1.5026
B( 26-N , 27-O ) :   1.5398 B( 26-N , 28-O ) :   1.5197 B( 27-O , 28-O ) :   0.2647
B( 29-C , 30-C ) :   1.1970 B( 29-C , 75-H ) :   1.0076 B( 30-C , 31-C ) :   1.1194
B( 31-C , 32-C ) :   1.6170 B( 31-C , 76-H ) :   0.9627 B( 32-C , 33-C ) :   1.2361
B( 32-C , 77-H ) :   0.9395 B( 33-C , 34-S ) :   1.1267 B( 33-C , 37-C ) :   1.3094
B( 34-S , 35-C ) :   1.1481 B( 35-C , 36-C ) :   1.3244 B( 35-C , 44-C ) :   1.1693
B( 36-C , 37-C ) :   1.2175 B( 36-C , 43-C ) :   1.1640 B( 37-C , 38-C ) :   1.1726
B( 38-C , 39-C ) :   1.4993 B( 38-C , 43-C ) :   0.1153 B( 38-C , 78-H ) :   0.9884
B( 39-C , 40-F ) :   1.1080 B( 39-C , 41-C ) :   1.1611 B( 41-C , 42-F ) :   1.1240
B( 41-C , 43-C ) :   1.4964 B( 43-C , 79-H ) :   0.9996 B( 44-C , 45-C ) :   1.5956
B( 44-C , 80-H ) :   0.9593 B( 45-C , 46-C ) :   1.1968 B( 45-C , 81-H ) :   0.9665
B( 46-C , 47-C ) :   1.5326 B( 46-C , 82-H ) :   0.9818 B( 47-C , 48-C ) :   1.1611
B( 47-C , 51-S ) :   1.0397 B( 48-C , 49-C ) :   1.5705 B( 48-C , 83-H ) :   0.9991
B( 49-C , 50-C ) :   1.2046 B( 49-C , 84-H ) :   0.9935 B( 50-C , 51-S ) :   1.0519
B( 50-C , 52-C ) :   1.4775 B( 52-C , 53-C ) :   1.2016 B( 52-C , 56-S ) :   1.0577
B( 53-C , 54-C ) :   1.6071 B( 53-C , 85-H ) :   0.9921 B( 54-C , 55-C ) :   1.1521
B( 54-C , 86-H ) :   0.9787 B( 55-C , 56-S ) :   1.0364 B( 55-C , 57-C ) :   1.5588
B( 57-C , 58-C ) :   1.2083 B( 57-C , 87-H ) :   0.9539 B( 58-C , 59-S ) :   1.1059
B( 58-C , 60-C ) :   0.1084 B( 58-C , 62-C ) :   1.4483 B( 59-S , 60-C ) :   1.1793
B( 60-C , 61-C ) :   1.4249 B( 60-C , 88-H ) :   0.9759 B( 61-C , 62-C ) :   1.2210
B( 61-C , 68-C ) :   1.0584 B( 62-C , 63-O ) :   1.1216 B( 63-O , 64-C ) :   1.1234
B( 64-C , 65-N ) :   0.9125 B( 64-C , 68-C ) :   1.5831 B( 65-N , 66-O ) :   1.5348
B( 65-N , 67-O ) :   1.5183 B( 66-O , 67-O ) :   0.2814 B( 68-C , 89-H ) :   1.0264

-----------------------------------------------------------------------------
         ABSORPTION SPECTRUM VIA TRANSITION ELECTRIC DIPOLE MOMENTS
-----------------------------------------------------------------------------
State   Energy  Wavelength   fosc         T2         TX        TY        TZ
        (cm-1)    (nm)                  (au**2)     (au)      (au)      (au)
-----------------------------------------------------------------------------
   0   10568.0    946.3   1.414809743  44.07371   4.47208   4.72897  -1.30806
   1   14107.1    708.9   0.325606331   7.59856   0.89191   2.12498   1.51244
   2   17394.4    574.9   0.025615008   0.48480  -0.57210   0.37977   0.11520
   3   17904.8    558.5   0.013027355   0.23953   0.11543  -0.35995  -0.31088
   4   18582.2    538.1   0.211729120   3.75110   0.53035   0.22231  -1.84943
   5   20791.3    481.0   0.369137607   5.84497  -0.11156   0.48148   2.36658
   6   22141.0    451.7   0.316632443   4.70798   1.45310  -0.47364   1.54018
   7   23839.9    419.5   0.019809722   0.27356  -0.11383  -0.22014  -0.46059
   8   25033.7    399.5   0.235273218   3.09402  -1.44819   0.86017   0.50683
   9   25529.4    391.7   0.018633152   0.24028  -0.19577  -0.25728   0.36846
  10   25924.8    385.7   0.129925243   1.64988   1.01372  -0.66206   0.42887
  11   27693.3    361.1   0.096374788   1.14568  -0.37005   0.98570   0.19274
  12   28795.1    347.3   0.055520648   0.63476  -0.27835  -0.09219   0.74080
  13   28833.0    346.8   0.046429383   0.53013   0.21977   0.04278  -0.69282
  14   29247.4    341.9   0.050780917   0.57160  -0.21775  -0.57060   0.44564
  15   29634.7    337.4   0.281576347   3.12803   1.15531  -1.32364   0.20312
  16   29967.4    333.7   0.172639665   1.89656  -0.74440   1.05728   0.47389
  17   30429.2    328.6   0.012077525   0.13067   0.23387  -0.26955   0.05753
  18   31001.6    322.6   0.265312959   2.81741   0.96897  -1.35549   0.20290
  19   31759.6    314.9   0.067878941   0.70362   0.49460  -0.59081  -0.33156
  20   31935.3    313.1   0.036602515   0.37732   0.27892  -0.51011  -0.19829
  21   32375.2    308.9   0.013155418   0.13377   0.04562  -0.34185  -0.12177
  22   32485.4    307.8   0.007035068   0.07129   0.04608   0.00165  -0.26300
  23   33045.1    302.6   0.025114875   0.25021   0.13113  -0.18530  -0.44573
  24   33348.6    299.9   0.055447416   0.54737   0.19967  -0.71182  -0.02849
  25   33898.8    295.0   0.016205484   0.15738  -0.08641   0.33552  -0.19324
  26   34079.5    293.4   0.700540635   6.76730  -1.00721   2.22185  -0.90344
  27   34504.0    289.8   0.443730922   4.23376   0.93923  -1.37667   1.20681
  28   34959.1    286.0   0.088886703   0.83705   0.29088   0.12380  -0.85855
  29   35055.9    285.3   0.194267774   1.82438  -0.14012  -1.17189  -0.65683
  30   35256.7    283.6   0.066180470   0.61797   0.17124  -0.35876  -0.67818
  31   35758.5    279.7   0.135261417   1.24529  -0.12250  -0.77690   0.79165
  32   35893.9    278.6   0.177279878   1.62598  -0.95869   0.33192   0.77248
  33   36514.2    273.9   0.074794870   0.67435  -0.22826   0.48991  -0.61825
  34   36645.5    272.9   0.205936653   1.85007   1.25653  -0.30111  -0.42489
  35   36772.6    271.9   0.002377248   0.02128  -0.00034  -0.11178   0.09375
  36   37029.1    270.1   0.044052291   0.39165   0.14211  -0.26762   0.54757
  37   37284.9    268.2   0.027442725   0.24231  -0.07024   0.16055  -0.46000
  38   37363.7    267.6   0.052920316   0.46628  -0.39749   0.14285   0.53654
  39   37802.8    264.5   0.030643390   0.26686  -0.07558  -0.41096   0.30375
  40   37998.9    263.2   0.037378417   0.32384   0.12970  -0.46488   0.30150
  41   38724.4    258.2   0.044881991   0.38156  -0.26489  -0.46758   0.30457
  42   38938.2    256.8   0.076957581   0.65066   0.11899  -0.46373   0.64919
  43   39066.7    256.0   0.010915509   0.09198   0.07591  -0.20817   0.20709
  44   39160.9    255.4   0.001495313   0.01257   0.01466  -0.04131  -0.10319
  45   39295.3    254.5   0.026774410   0.22431  -0.27750  -0.25024  -0.29101
  46   39659.6    252.1   0.038683339   0.32111  -0.53567   0.03517  -0.18147
  47   39800.1    251.3   0.272130778   2.25096   0.67690   0.03481  -1.33849
  48   39964.4    250.2   0.071439879   0.58850  -0.23628   0.30370   0.66365
  49   39997.9    250.0   0.022873278   0.18826  -0.32541   0.28430   0.03931

FINAL SINGLE POINT ENERGY     -4990.714241585969

DIPOLE MOMENT
-------------
                                X             Y             Z
Electronic contribution:    -35.61427      -0.82259      28.14176
Nuclear contribution   :     36.93074       3.38869     -32.97409
                        -----------------------------------------
Total Dipole Moment    :      1.31647       2.56609      -4.83233
                        -----------------------------------------
Magnitude (a.u.)       :      5.62755
Magnitude (Debye)      :     14.30409

Rotational constants in cm-1:     0.000908     0.000265     0.000248
Rotational constants in MHz :    27.222069     7.930953     7.431714

                             ****ORCA TERMINATED NORMALLY****
TOTAL RUN TIME: 0 days 0 hours 12 minutes 27 seconds 360 msec
