                         Program Version 4.2.0 -  RELEASE  -
|  1> # ORCA input file
|  2> # SCF done       -175.292486105897          0.000468107837
|  3> ! CAM-B3LYP def2-SVP def2/J RIJCOSX Grid4 TightSCF
|  4> %maxcore 5000
|  5> %tddft
|  6>     Mode sTDDFT
|  7>     Ethresh 5.0
|  8>     maxcore 5000
|  9> end
| 10>
| 11> %pal
| 12>   nprocs 6
| 13>   end
| 14> * xyz 0 1
| 15>    C        3.79477        -5.48534         8.31995
| 16>    C        4.08344        -4.85264         7.17500
| 17>    C        4.30619        -3.44729         6.97983
| 18>    C        4.57333        -3.09780         5.70361
| 19>    C        4.58126        -4.18584         4.78201
| 20>    S        4.24441        -5.68370         5.61956
| 21>    C        4.81114        -4.13881         3.43015
| 22>    C        5.13474        -2.99450         2.65413
| 23>    C        5.31995        -3.26380         1.33782
| 24>    C        5.14895        -4.63389         0.99802
| 25>    S        4.73587        -5.57415         2.41093
| 26>    C        5.28985        -5.21141        -0.23369
| 27>    C        5.08097        -6.59475        -0.39044
| 28>    S        5.36795        -7.45017        -1.91648
| 29>    C        4.90873        -8.89666        -1.12754
| 30>    C        4.56827        -8.66832         0.19018
| 31>    N        4.67690        -7.37035         0.56564
| 32>    C        4.11032        -9.67040         1.10685
| 33>    C        3.68101        -9.36262         2.34834
| 34>    C        3.19292       -10.30299         3.29335
| 35>    S        3.35519       -12.01191         3.06687
| 36>    C        2.54206       -12.34787         4.57891
| 37>    C        2.19187       -11.15974         5.22326
| 38>    C        2.55001       -10.02181         4.49562
| 39>    C        2.24459        -8.61988         4.93509
| 40>    C        1.45112        -7.91036         3.84517
| 41>    O        0.48283        -8.36752         3.29843
| 42>    O        1.94514        -6.69481         3.60978
| 43>    C        1.31614        -5.92015         2.59830
| 44>    C        1.40617        -8.60303         6.22165
| 45>    C        1.88521        -9.68182         7.18433
| 46>    C        1.59745       -11.05941         6.59111
| 47>    C        2.36905       -13.69730         4.93686
| 48>    C        1.48388       -14.19732         5.85677
| 49>    C        1.35978       -15.54411         6.22535
| 50>    C        2.22475       -16.59508         6.00024
| 51>    C        1.99049       -17.93158         6.39813
| 52>    C        3.01787       -18.79027         6.13423
| 53>    C        4.12750       -18.17306         5.52322
| 54>    S        3.81528       -16.47831         5.26533
| 55>    C        5.33655       -18.75483         5.16413
| 56>    C        5.71550       -20.10372         5.28351
| 57>    C        6.99576       -20.35182         4.87054
| 58>    C        7.68377       -19.21112         4.41092
| 59>    S        6.64877       -17.80608         4.50100
| 60>    C        8.99597       -19.16425         3.96564
| 61>    C        9.61768       -17.99763         3.55066
| 62>    C       10.93799       -17.90560         3.13824
| 63>    C       11.62169       -16.71638         2.71312
| 64>    C       11.09877       -15.44709         2.58764
| 65>    C       11.83746       -14.32686         2.16373
| 66>    N       12.37942       -13.37174         1.82374
| 67>    C        9.76742       -15.07317         2.85142
| 68>    N        8.70601       -14.67260         3.03960
| 69>    C       13.00845       -17.07983         2.41828
| 70>    C       13.16791       -18.46777         2.64343
| 71>    C       11.87812       -19.03639         3.09621
| 72>    O       11.67274       -20.20421         3.37298
| 73>    C       14.36210       -19.11735         2.45808
| 74>    C       15.45821       -18.35895         2.03014
| 75>    C       15.29003       -16.97402         1.80837
| 76>    C       14.07870       -16.31683         1.99469
| 77>    S       16.77095       -16.22572         1.28718
| 78>    C       17.58279       -17.76625         1.37459
| 79>    C       16.78978       -18.78815         1.77210
| 80>   Br       19.40388       -17.87937         0.93401
| 81>    H        3.70685        -4.93951         9.24264
| 82>    H        3.64777        -6.54928         8.35711
| 83>    H        4.25540        -2.76354         7.80863
| 84>    H        4.76359        -2.09026         5.37872
| 85>    H        5.23148        -2.01549         3.08915
| 86>    H        5.57748        -2.53310         0.59125
| 87>    H        5.57540        -4.62056        -1.08905
| 88>    H        4.90388        -9.82925        -1.65433
| 89>    H        4.09777       -10.69084         0.74995
| 90>    H        3.70135        -8.32501         2.65072
| 91>    H        3.17716        -8.06987         5.09011
| 92>    H        1.47869        -4.87568         2.85504
| 93>    H        0.24985        -6.14932         2.55639
| 94>    H        1.77457        -6.14406         1.63304
| 95>    H        0.36003        -8.78965         5.96778
| 96>    H        1.47635        -7.61451         6.67816
| 97>    H        2.95829        -9.57230         7.35413
| 98>    H        1.37477        -9.58105         8.14345
| 99>    H        0.51399       -11.20437         6.53298
|100>    H        2.00987       -11.84360         7.23009
|101>    H        2.95859       -14.39538         4.35798
|102>    H        0.76557       -13.52514         6.30138
|103>    H        0.47648       -15.80209         6.79758
|104>    H        1.06811       -18.22063         6.87090
|105>    H        3.00890       -19.83695         6.37860
|106>    H        5.04797       -20.85512         5.66562
|107>    H        7.46509       -21.31924         4.88827
|108>    H        9.55564       -20.08830         3.95904
|109>    H        9.02223       -17.09281         3.56414
|110>    H       14.45103       -20.17724         2.63851
|111>    H       14.00454       -15.25802         1.81219
|112>    H       17.12672       -19.80298         1.88062
|113> *
|114>
|115>                          ****END OF INPUT****

CARTESIAN COORDINATES (ANGSTROEM)
---------------------------------
  C      3.794770   -5.485340    8.319950
  C      4.083440   -4.852640    7.175000
  C      4.306190   -3.447290    6.979830
  C      4.573330   -3.097800    5.703610
  C      4.581260   -4.185840    4.782010
  S      4.244410   -5.683700    5.619560
  C      4.811140   -4.138810    3.430150
  C      5.134740   -2.994500    2.654130
  C      5.319950   -3.263800    1.337820
  C      5.148950   -4.633890    0.998020
  S      4.735870   -5.574150    2.410930
  C      5.289850   -5.211410   -0.233690
  C      5.080970   -6.594750   -0.390440
  S      5.367950   -7.450170   -1.916480
  C      4.908730   -8.896660   -1.127540
  C      4.568270   -8.668320    0.190180
  N      4.676900   -7.370350    0.565640
  C      4.110320   -9.670400    1.106850
  C      3.681010   -9.362620    2.348340
  C      3.192920  -10.302990    3.293350
  S      3.355190  -12.011910    3.066870
  C      2.542060  -12.347870    4.578910
  C      2.191870  -11.159740    5.223260
  C      2.550010  -10.021810    4.495620
  C      2.244590   -8.619880    4.935090
  C      1.451120   -7.910360    3.845170
  O      0.482830   -8.367520    3.298430
  O      1.945140   -6.694810    3.609780
  C      1.316140   -5.920150    2.598300
  C      1.406170   -8.603030    6.221650
  C      1.885210   -9.681820    7.184330
  C      1.597450  -11.059410    6.591110
  C      2.369050  -13.697300    4.936860
  C      1.483880  -14.197320    5.856770
  C      1.359780  -15.544110    6.225350
  C      2.224750  -16.595080    6.000240
  C      1.990490  -17.931580    6.398130
  C      3.017870  -18.790270    6.134230
  C      4.127500  -18.173060    5.523220
  S      3.815280  -16.478310    5.265330
  C      5.336550  -18.754830    5.164130
  C      5.715500  -20.103720    5.283510
  C      6.995760  -20.351820    4.870540
  C      7.683770  -19.211120    4.410920
  S      6.648770  -17.806080    4.501000
  C      8.995970  -19.164250    3.965640
  C      9.617680  -17.997630    3.550660
  C     10.937990  -17.905600    3.138240
  C     11.621690  -16.716380    2.713120
  C     11.098770  -15.447090    2.587640
  C     11.837460  -14.326860    2.163730
  N     12.379420  -13.371740    1.823740
  C      9.767420  -15.073170    2.851420
  N      8.706010  -14.672600    3.039600
  C     13.008450  -17.079830    2.418280
  C     13.167910  -18.467770    2.643430
  C     11.878120  -19.036390    3.096210
  O     11.672740  -20.204210    3.372980
  C     14.362100  -19.117350    2.458080
  C     15.458210  -18.358950    2.030140
  C     15.290030  -16.974020    1.808370
  C     14.078700  -16.316830    1.994690
  S     16.770950  -16.225720    1.287180
  C     17.582790  -17.766250    1.374590
  C     16.789780  -18.788150    1.772100
  Br    19.403880  -17.879370    0.934010
  H      3.706850   -4.939510    9.242640
  H      3.647770   -6.549280    8.357110
  H      4.255400   -2.763540    7.808630
  H      4.763590   -2.090260    5.378720
  H      5.231480   -2.015490    3.089150
  H      5.577480   -2.533100    0.591250
  H      5.575400   -4.620560   -1.089050
  H      4.903880   -9.829250   -1.654330
  H      4.097770  -10.690840    0.749950
  H      3.701350   -8.325010    2.650720
  H      3.177160   -8.069870    5.090110
  H      1.478690   -4.875680    2.855040
  H      0.249850   -6.149320    2.556390
  H      1.774570   -6.144060    1.633040
  H      0.360030   -8.789650    5.967780
  H      1.476350   -7.614510    6.678160
  H      2.958290   -9.572300    7.354130
  H      1.374770   -9.581050    8.143450
  H      0.513990  -11.204370    6.532980
  H      2.009870  -11.843600    7.230090
  H      2.958590  -14.395380    4.357980
  H      0.765570  -13.525140    6.301380
  H      0.476480  -15.802090    6.797580
  H      1.068110  -18.220630    6.870900
  H      3.008900  -19.836950    6.378600
  H      5.047970  -20.855120    5.665620
  H      7.465090  -21.319240    4.888270
  H      9.555640  -20.088300    3.959040
  H      9.022230  -17.092810    3.564140
  H     14.451030  -20.177240    2.638510
  H     14.004540  -15.258020    1.812190
  H     17.126720  -19.802980    1.880620

 Total Charge           Charge          ....    0
 Multiplicity           Mult            ....    1
 Number of Electrons    NEL             ....  536
 Basis Dimension        Dim             .... 1130

ORBITAL ENERGIES
----------------

  NO   OCC          E(Eh)            E(eV)
   0   2.0000    -482.870981    -13139.5874
   1   2.0000     -88.958727     -2420.6900
   2   2.0000     -88.957186     -2420.6481
   3   2.0000     -88.956275     -2420.6233
   4   2.0000     -88.950079     -2420.4547
   5   2.0000     -88.948361     -2420.4079
   6   2.0000     -88.942174     -2420.2396
   7   2.0000     -88.940423     -2420.1919
   8   2.0000     -62.548683     -1702.0362
   9   2.0000     -56.382614     -1534.2489
  10   2.0000     -56.379937     -1534.1761
  11   2.0000     -56.379895     -1534.1749
  12   2.0000     -19.250981      -523.8458
  13   2.0000     -19.191959      -522.2397
  14   2.0000     -19.188569      -522.1475
  15   2.0000     -14.399147      -391.8207
  16   2.0000     -14.389804      -391.5665
  17   2.0000     -14.387820      -391.5125
  18   2.0000     -10.385920      -282.6153
  19   2.0000     -10.340975      -281.3922
  20   2.0000     -10.338842      -281.3342
  21   2.0000     -10.330568      -281.1091
  22   2.0000     -10.328240      -281.0457
  23   2.0000     -10.316156      -280.7169
  24   2.0000     -10.315190      -280.6906
  25   2.0000     -10.312559      -280.6190
  26   2.0000     -10.312506      -280.6175
  27   2.0000     -10.311009      -280.5768
  28   2.0000     -10.310866      -280.5729
  29   2.0000     -10.309467      -280.5348
  30   2.0000     -10.309316      -280.5307
  31   2.0000     -10.307990      -280.4947
  32   2.0000     -10.304459      -280.3986
  33   2.0000     -10.302547      -280.3466
  34   2.0000     -10.299600      -280.2664
  35   2.0000     -10.299427      -280.2617
  36   2.0000     -10.299098      -280.2527
  37   2.0000     -10.299069      -280.2519
  38   2.0000     -10.296477      -280.1814
  39   2.0000     -10.295652      -280.1589
  40   2.0000     -10.295430      -280.1529
  41   2.0000     -10.294159      -280.1183
  42   2.0000     -10.293559      -280.1020
  43   2.0000     -10.292823      -280.0820
  44   2.0000     -10.292365      -280.0695
  45   2.0000     -10.291977      -280.0589
  46   2.0000     -10.290271      -280.0125
  47   2.0000     -10.288598      -279.9670
  48   2.0000     -10.286384      -279.9068
  49   2.0000     -10.285570      -279.8846
  50   2.0000     -10.284100      -279.8446
  51   2.0000     -10.282954      -279.8134
  52   2.0000     -10.282461      -279.8000
  53   2.0000     -10.280940      -279.7586
  54   2.0000     -10.280921      -279.7581
  55   2.0000     -10.280252      -279.7399
  56   2.0000     -10.279647      -279.7234
  57   2.0000     -10.279564      -279.7212
  58   2.0000     -10.278718      -279.6981
  59   2.0000     -10.276182      -279.6291
  60   2.0000     -10.275723      -279.6166
  61   2.0000     -10.274648      -279.5874
  62   2.0000     -10.274590      -279.5858
  63   2.0000     -10.273426      -279.5541
  64   2.0000     -10.272560      -279.5306
  65   2.0000     -10.268996      -279.4336
  66   2.0000     -10.267846      -279.4023
  67   2.0000     -10.267810      -279.4013
  68   2.0000     -10.263007      -279.2706
  69   2.0000     -10.260690      -279.2076
  70   2.0000      -8.778094      -238.8641
  71   2.0000      -8.054610      -219.1771
  72   2.0000      -8.053148      -219.1373
  73   2.0000      -8.052582      -219.1219
  74   2.0000      -8.045990      -218.9425
  75   2.0000      -8.044075      -218.8904
  76   2.0000      -8.038337      -218.7343
  77   2.0000      -8.033795      -218.6107
  78   2.0000      -6.614312      -179.9846
  79   2.0000      -6.599848      -179.5910
  80   2.0000      -6.599704      -179.5871
  81   2.0000      -6.024241      -163.9279
  82   2.0000      -6.022872      -163.8907
  83   2.0000      -6.021703      -163.8589
  84   2.0000      -6.020072      -163.8145
  85   2.0000      -6.018575      -163.7738
  86   2.0000      -6.017656      -163.7487
  87   2.0000      -6.015848      -163.6995
  88   2.0000      -6.015567      -163.6919
  89   2.0000      -6.014825      -163.6717
  90   2.0000      -6.014359      -163.6590
  91   2.0000      -6.013172      -163.6267
  92   2.0000      -6.011497      -163.5811
  93   2.0000      -6.009306      -163.5215
  94   2.0000      -6.008150      -163.4901
  95   2.0000      -6.007274      -163.4662
  96   2.0000      -6.006247      -163.4383
  97   2.0000      -6.004227      -163.3833
  98   2.0000      -6.003887      -163.3741
  99   2.0000      -5.999257      -163.2481
 100   2.0000      -5.998926      -163.2391
 101   2.0000      -5.994820      -163.1273
 102   2.0000      -2.730187       -74.2922
 103   2.0000      -2.726113       -74.1813
 104   2.0000      -2.726053       -74.1797
 105   2.0000      -2.714531       -73.8661
 106   2.0000      -2.714519       -73.8658
 107   2.0000      -1.181879       -32.1606
 108   2.0000      -1.101471       -29.9726
 109   2.0000      -1.086985       -29.5784
 110   2.0000      -1.059377       -28.8271
 111   2.0000      -1.003786       -27.3144
 112   2.0000      -1.000714       -27.2308
 113   2.0000      -0.992410       -27.0048
 114   2.0000      -0.988966       -26.9111
 115   2.0000      -0.988541       -26.8996
 116   2.0000      -0.980085       -26.6695
 117   2.0000      -0.970306       -26.4034
 118   2.0000      -0.968160       -26.3450
 119   2.0000      -0.964548       -26.2467
 120   2.0000      -0.923952       -25.1420
 121   2.0000      -0.921404       -25.0727
 122   2.0000      -0.918420       -24.9915
 123   2.0000      -0.905115       -24.6294
 124   2.0000      -0.896630       -24.3985
 125   2.0000      -0.891150       -24.2494
 126   2.0000      -0.886067       -24.1111
 127   2.0000      -0.883302       -24.0359
 128   2.0000      -0.873835       -23.7782
 129   2.0000      -0.865753       -23.5583
 130   2.0000      -0.863727       -23.5032
 131   2.0000      -0.855492       -23.2791
 132   2.0000      -0.853936       -23.2368
 133   2.0000      -0.846605       -23.0373
 134   2.0000      -0.846068       -23.0227
 135   2.0000      -0.829743       -22.5785
 136   2.0000      -0.828441       -22.5430
 137   2.0000      -0.825019       -22.4499
 138   2.0000      -0.819409       -22.2972
 139   2.0000      -0.814189       -22.1552
 140   2.0000      -0.808108       -21.9897
 141   2.0000      -0.802972       -21.8500
 142   2.0000      -0.792052       -21.5528
 143   2.0000      -0.782564       -21.2947
 144   2.0000      -0.765916       -20.8416
 145   2.0000      -0.749932       -20.4067
 146   2.0000      -0.734797       -19.9948
 147   2.0000      -0.730275       -19.8718
 148   2.0000      -0.723926       -19.6990
 149   2.0000      -0.721901       -19.6439
 150   2.0000      -0.700910       -19.0727
 151   2.0000      -0.692671       -18.8485
 152   2.0000      -0.689399       -18.7595
 153   2.0000      -0.683375       -18.5956
 154   2.0000      -0.674155       -18.3447
 155   2.0000      -0.666559       -18.1380
 156   2.0000      -0.664468       -18.0811
 157   2.0000      -0.660055       -17.9610
 158   2.0000      -0.652355       -17.7515
 159   2.0000      -0.647336       -17.6149
 160   2.0000      -0.640440       -17.4273
 161   2.0000      -0.636176       -17.3112
 162   2.0000      -0.634679       -17.2705
 163   2.0000      -0.630605       -17.1596
 164   2.0000      -0.624511       -16.9938
 165   2.0000      -0.621841       -16.9211
 166   2.0000      -0.616168       -16.7668
 167   2.0000      -0.612321       -16.6621
 168   2.0000      -0.608274       -16.5520
 169   2.0000      -0.601215       -16.3599
 170   2.0000      -0.600570       -16.3423
 171   2.0000      -0.598646       -16.2900
 172   2.0000      -0.587704       -15.9922
 173   2.0000      -0.584582       -15.9073
 174   2.0000      -0.578686       -15.7469
 175   2.0000      -0.575610       -15.6632
 176   2.0000      -0.572001       -15.5649
 177   2.0000      -0.566973       -15.4281
 178   2.0000      -0.562199       -15.2982
 179   2.0000      -0.557244       -15.1634
 180   2.0000      -0.548491       -14.9252
 181   2.0000      -0.545624       -14.8472
 182   2.0000      -0.542423       -14.7601
 183   2.0000      -0.536322       -14.5941
 184   2.0000      -0.529396       -14.4056
 185   2.0000      -0.526542       -14.3279
 186   2.0000      -0.521374       -14.1873
 187   2.0000      -0.520136       -14.1536
 188   2.0000      -0.516154       -14.0453
 189   2.0000      -0.515169       -14.0185
 190   2.0000      -0.512496       -13.9457
 191   2.0000      -0.511500       -13.9186
 192   2.0000      -0.510977       -13.9044
 193   2.0000      -0.507421       -13.8076
 194   2.0000      -0.506157       -13.7732
 195   2.0000      -0.504085       -13.7168
 196   2.0000      -0.502880       -13.6840
 197   2.0000      -0.499363       -13.5883
 198   2.0000      -0.498682       -13.5698
 199   2.0000      -0.494210       -13.4481
 200   2.0000      -0.492341       -13.3973
 201   2.0000      -0.488845       -13.3021
 202   2.0000      -0.487859       -13.2753
 203   2.0000      -0.486559       -13.2399
 204   2.0000      -0.486065       -13.2265
 205   2.0000      -0.484354       -13.1799
 206   2.0000      -0.480889       -13.0857
 207   2.0000      -0.473349       -12.8805
 208   2.0000      -0.471803       -12.8384
 209   2.0000      -0.471121       -12.8199
 210   2.0000      -0.470280       -12.7970
 211   2.0000      -0.467670       -12.7259
 212   2.0000      -0.467143       -12.7116
 213   2.0000      -0.464344       -12.6354
 214   2.0000      -0.461908       -12.5692
 215   2.0000      -0.458004       -12.4629
 216   2.0000      -0.457447       -12.4478
 217   2.0000      -0.455279       -12.3888
 218   2.0000      -0.449551       -12.2329
 219   2.0000      -0.446218       -12.1422
 220   2.0000      -0.443563       -12.0700
 221   2.0000      -0.437689       -11.9101
 222   2.0000      -0.437163       -11.8958
 223   2.0000      -0.435852       -11.8601
 224   2.0000      -0.430794       -11.7225
 225   2.0000      -0.428950       -11.6723
 226   2.0000      -0.427389       -11.6298
 227   2.0000      -0.426648       -11.6097
 228   2.0000      -0.424680       -11.5561
 229   2.0000      -0.422167       -11.4878
 230   2.0000      -0.419894       -11.4259
 231   2.0000      -0.417903       -11.3717
 232   2.0000      -0.417753       -11.3676
 233   2.0000      -0.412927       -11.2363
 234   2.0000      -0.406612       -11.0645
 235   2.0000      -0.403965       -10.9925
 236   2.0000      -0.402505       -10.9527
 237   2.0000      -0.401901       -10.9363
 238   2.0000      -0.400193       -10.8898
 239   2.0000      -0.398542       -10.8449
 240   2.0000      -0.396927       -10.8009
 241   2.0000      -0.395738       -10.7686
 242   2.0000      -0.390552       -10.6275
 243   2.0000      -0.386509       -10.5174
 244   2.0000      -0.382290       -10.4026
 245   2.0000      -0.376464       -10.2441
 246   2.0000      -0.367044        -9.9878
 247   2.0000      -0.365927        -9.9574
 248   2.0000      -0.360750        -9.8165
 249   2.0000      -0.358174        -9.7464
 250   2.0000      -0.356065        -9.6890
 251   2.0000      -0.343540        -9.3482
 252   2.0000      -0.342446        -9.3184
 253   2.0000      -0.340592        -9.2680
 254   2.0000      -0.335852        -9.1390
 255   2.0000      -0.329149        -8.9566
 256   2.0000      -0.328479        -8.9384
 257   2.0000      -0.323015        -8.7897
 258   2.0000      -0.317679        -8.6445
 259   2.0000      -0.309254        -8.4152
 260   2.0000      -0.307644        -8.3714
 261   2.0000      -0.301889        -8.2148
 262   2.0000      -0.294920        -8.0252
 263   2.0000      -0.284454        -7.7404
 264   2.0000      -0.273071        -7.4306
 265   2.0000      -0.251954        -6.8560
 266   2.0000      -0.224781        -6.1166
 267   2.0000      -0.209773        -5.7082
 268   0.0000      -0.103744        -2.8230
 269   0.0000      -0.070126        -1.9082
 270   0.0000      -0.054480        -1.4825
 271   0.0000      -0.037964        -1.0331
 272   0.0000      -0.017191        -0.4678

MULLIKEN ATOMIC CHARGES
-----------------------
   0 C :   -0.032476
   1 C :   -0.056423
   2 C :    0.051905
   3 C :    0.027029
   4 C :   -0.053382
   5 S :    0.083633
   6 C :   -0.040763
   7 C :    0.031557
   8 C :    0.034397
   9 C :   -0.006241
  10 S :    0.109824
  11 C :    0.013081
  12 C :   -0.076089
  13 S :    0.112035
  14 C :   -0.110942
  15 C :    0.082769
  16 N :   -0.127566
  17 C :    0.003685
  18 C :   -0.010395
  19 C :   -0.090514
  20 S :    0.136475
  21 C :   -0.141176
  22 C :   -0.062641
  23 C :    0.002990
  24 C :    0.042635
  25 C :    0.124263
  26 O :   -0.204434
  27 O :   -0.292914
  28 C :    0.178146
  29 C :    0.032407
  30 C :    0.052402
  31 C :    0.098354
  32 C :    0.048797
  33 C :   -0.022179
  34 C :    0.025473
  35 C :   -0.051860
  36 C :    0.054746
  37 C :    0.012672
  38 C :   -0.023391
  39 S :    0.104529
  40 C :   -0.058122
  41 C :    0.042710
  42 C :    0.017903
  43 C :    0.006830
  44 S :    0.112610
  45 C :   -0.027954
  46 C :   -0.038553
  47 C :   -0.094662
  48 C :    0.332167
  49 C :   -0.375897
  50 C :   -0.189142
  51 N :    0.129397
  52 C :   -0.190115
  53 N :    0.126334
  54 C :    0.011272
  55 C :   -0.004379
  56 C :    0.131846
  57 O :   -0.171734
  58 C :   -0.082145
  59 C :    0.119258
  60 C :   -0.093129
  61 C :   -0.029033
  62 S :    0.174630
  63 C :   -0.123582
  64 C :    0.035885
  65 Br:    0.007806
  66 H :    0.022652
  67 H :    0.022416
  68 H :   -0.008244
  69 H :   -0.010066
  70 H :   -0.017206
  71 H :   -0.014188
  72 H :   -0.019358
  73 H :    0.021618
  74 H :   -0.012782
  75 H :    0.028820
  76 H :    0.026596
  77 H :    0.029346
  78 H :    0.040368
  79 H :    0.035799
  80 H :    0.015009
  81 H :    0.006610
  82 H :    0.009202
  83 H :    0.000515
  84 H :    0.026225
  85 H :    0.019691
  86 H :    0.007174
  87 H :   -0.010358
  88 H :   -0.005451
  89 H :   -0.006249
  90 H :   -0.010564
  91 H :   -0.008981
  92 H :   -0.004297
  93 H :    0.012689
  94 H :    0.010579
  95 H :   -0.017904
  96 H :   -0.011929
  97 H :   -0.008350
Sum of atomic charges:   -0.0000000

LOEWDIN ATOMIC CHARGES
----------------------
   0 C :   -0.074734
   1 C :   -0.140017
   2 C :   -0.025779
   3 C :   -0.026263
   4 C :   -0.164441
   5 S :    0.384835
   6 C :   -0.196385
   7 C :   -0.023689
   8 C :   -0.040344
   9 C :   -0.118406
  10 S :    0.435631
  11 C :   -0.112313
  12 C :   -0.120995
  13 S :    0.410687
  14 C :   -0.198280
  15 C :   -0.038592
  16 N :   -0.127945
  17 C :   -0.016938
  18 C :   -0.035166
  19 C :   -0.147932
  20 S :    0.450385
  21 C :   -0.179284
  22 C :   -0.030211
  23 C :   -0.048908
  24 C :   -0.049590
  25 C :    0.084034
  26 O :   -0.176716
  27 O :   -0.083889
  28 C :    0.073181
  29 C :   -0.015686
  30 C :   -0.026135
  31 C :   -0.027577
  32 C :   -0.010204
  33 C :   -0.062829
  34 C :   -0.015486
  35 C :   -0.167329
  36 C :   -0.007844
  37 C :   -0.053017
  38 C :   -0.144757
  39 S :    0.415443
  40 C :   -0.201554
  41 C :   -0.009281
  42 C :   -0.050216
  43 C :   -0.103717
  44 S :    0.413316
  45 C :   -0.079777
  46 C :    0.046896
  47 C :   -0.116973
  48 C :    0.072485
  49 C :   -0.164288
  50 C :   -0.018848
  51 N :   -0.077111
  52 C :   -0.021313
  53 N :   -0.073757
  54 C :   -0.016722
  55 C :   -0.047417
  56 C :    0.080396
  57 O :   -0.164573
  58 C :    0.014408
  59 C :   -0.037817
  60 C :   -0.146729
  61 C :   -0.015903
  62 S :    0.423081
  63 C :   -0.276671
  64 C :   -0.071371
  65 Br:    0.124794
  66 H :    0.029913
  67 H :    0.025224
  68 H :    0.034581
  69 H :    0.033040
  70 H :    0.029250
  71 H :    0.032898
  72 H :    0.031780
  73 H :    0.026667
  74 H :    0.026633
  75 H :    0.034561
  76 H :    0.024429
  77 H :    0.022793
  78 H :    0.021096
  79 H :    0.021056
  80 H :    0.027126
  81 H :    0.025312
  82 H :    0.023745
  83 H :    0.025084
  84 H :    0.033743
  85 H :    0.033958
  86 H :    0.017147
  87 H :    0.031906
  88 H :    0.038988
  89 H :    0.036201
  90 H :    0.032751
  91 H :    0.033807
  92 H :    0.036976
  93 H :    0.037116
  94 H :    0.030812
  95 H :    0.037617
  96 H :    0.039262
  97 H :    0.036672

  Mayer bond orders larger than 0.100000
B(  0-C ,  1-C ) :   1.8622 B(  0-C , 66-H ) :   0.9506 B(  0-C , 67-H ) :   0.9411
B(  1-C ,  2-C ) :   1.0755 B(  1-C ,  5-S ) :   1.0106 B(  2-C ,  3-C ) :   1.6695
B(  2-C , 68-H ) :   0.9935 B(  3-C ,  4-C ) :   1.1424 B(  3-C , 69-H ) :   0.9918
B(  4-C ,  5-S ) :   1.0604 B(  4-C ,  6-C ) :   1.5643 B(  6-C ,  7-C ) :   1.1618
B(  6-C , 10-S ) :   0.9884 B(  7-C ,  8-C ) :   1.6197 B(  7-C , 70-H ) :   0.9931
B(  8-C ,  9-C ) :   1.1272 B(  8-C , 71-H ) :   0.9977 B(  9-C , 10-S ) :   1.0832
B(  9-C , 11-C ) :   1.5902 B( 11-C , 12-C ) :   1.1386 B( 11-C , 72-H ) :   0.9643
B( 12-C , 13-S ) :   1.0875 B( 12-C , 16-N ) :   1.6230 B( 13-S , 14-C ) :   1.1450
B( 14-C , 15-C ) :   1.4960 B( 14-C , 73-H ) :   0.9647 B( 15-C , 16-N ) :   1.3430
B( 15-C , 17-C ) :   1.1085 B( 17-C , 18-C ) :   1.6870 B( 17-C , 74-H ) :   0.9724
B( 18-C , 19-C ) :   1.1380 B( 18-C , 75-H ) :   0.9567 B( 19-C , 20-S ) :   1.1400
B( 19-C , 23-C ) :   1.4459 B( 20-S , 21-C ) :   1.0998 B( 21-C , 22-C ) :   1.4385
B( 21-C , 32-C ) :   1.2247 B( 22-C , 23-C ) :   1.3842 B( 22-C , 31-C ) :   1.0535
B( 23-C , 24-C ) :   0.9839 B( 24-C , 25-C ) :   0.9067 B( 24-C , 29-C ) :   1.0628
B( 24-C , 76-H ) :   0.8826 B( 25-C , 26-O ) :   2.1378 B( 25-C , 27-O ) :   1.1924
B( 27-O , 28-C ) :   0.9096 B( 28-C , 77-H ) :   0.9815 B( 28-C , 78-H ) :   0.9655
B( 28-C , 79-H ) :   0.9766 B( 29-C , 30-C ) :   1.0836 B( 29-C , 80-H ) :   0.9325
B( 29-C , 81-H ) :   0.9318 B( 30-C , 31-C ) :   1.0907 B( 30-C , 82-H ) :   0.9388
B( 30-C , 83-H ) :   0.9318 B( 31-C , 84-H ) :   0.8988 B( 31-C , 85-H ) :   0.9158
B( 32-C , 33-C ) :   1.5492 B( 32-C , 86-H ) :   0.9260 B( 33-C , 34-C ) :   1.2452
B( 33-C , 87-H ) :   0.9655 B( 34-C , 35-C ) :   1.5238 B( 34-C , 88-H ) :   0.9612
B( 35-C , 36-C ) :   1.1805 B( 35-C , 39-S ) :   1.0295 B( 36-C , 37-C ) :   1.5467
B( 36-C , 89-H ) :   0.9979 B( 37-C , 38-C ) :   1.2222 B( 37-C , 90-H ) :   0.9941
B( 38-C , 39-S ) :   1.0900 B( 38-C , 40-C ) :   1.4232 B( 40-C , 41-C ) :   1.2473
B( 40-C , 44-S ) :   1.0467 B( 41-C , 42-C ) :   1.5064 B( 41-C , 91-H ) :   0.9943
B( 42-C , 43-C ) :   1.2073 B( 42-C , 92-H ) :   1.0025 B( 43-C , 44-S ) :   1.0967
B( 43-C , 45-C ) :   1.3723 B( 45-C , 46-C ) :   1.3009 B( 45-C , 93-H ) :   0.9780
B( 46-C , 47-C ) :   1.4336 B( 46-C , 94-H ) :   0.9453 B( 47-C , 48-C ) :   1.1338
B( 47-C , 56-C ) :   0.9768 B( 48-C , 49-C ) :   1.5642 B( 48-C , 54-C ) :   0.9831
B( 49-C , 50-C ) :   1.1546 B( 49-C , 52-C ) :   1.1579 B( 50-C , 51-N ) :   2.9574
B( 52-C , 53-N ) :   2.9544 B( 54-C , 55-C ) :   1.2821 B( 54-C , 61-C ) :   1.4250
B( 55-C , 56-C ) :   0.9326 B( 55-C , 58-C ) :   1.4335 B( 56-C , 57-O ) :   2.1786
B( 58-C , 59-C ) :   1.2357 B( 58-C , 95-H ) :   1.0160 B( 59-C , 60-C ) :   1.3235
B( 59-C , 64-C ) :   1.1574 B( 60-C , 61-C ) :   1.3160 B( 60-C , 62-S ) :   1.0802
B( 61-C , 96-H ) :   0.9789 B( 62-S , 63-C ) :   1.0848 B( 63-C , 64-C ) :   1.6220
B( 63-C , 65-Br) :   1.0095 B( 64-C , 97-H ) :   1.0002

-----------------------------------------------------------------------------
         ABSORPTION SPECTRUM VIA TRANSITION ELECTRIC DIPOLE MOMENTS
-----------------------------------------------------------------------------
State   Energy  Wavelength   fosc         T2         TX        TY        TZ
        (cm-1)    (nm)                  (au**2)     (au)      (au)      (au)
-----------------------------------------------------------------------------
   0    9534.8   1048.8   0.839705886  28.99286   4.42702  -3.01754  -0.53743
   1   16098.5    621.2   0.260171850   5.32046   1.70750   1.49527  -0.41115
   2   18650.9    536.2   0.484955907   8.56010  -0.05276  -1.62191  -2.43449
   3   19023.7    525.7   0.085904729   1.48661  -0.54642  -0.91070  -0.59889
   4   20526.4    487.2   1.033333145  16.57306   1.53808   3.03475  -2.23554
   5   21393.1    467.4   0.312615622   4.81075   0.43105   0.21884  -2.13941
   6   22907.2    436.5   0.522353205   7.50701  -1.64017  -1.25179   1.80274
   7   24564.9    407.1   0.191405311   2.56517   1.37121  -0.73713  -0.37629
   8   25844.3    386.9   0.172312511   2.19496  -0.92809  -0.10661   1.14989
   9   26729.3    374.1   0.091754050   1.13009   0.68532   0.80705  -0.09540
  10   26884.9    372.0   0.002324634   0.02847   0.11226   0.12362  -0.02411
  11   27325.2    366.0   0.080560876   0.97059  -0.22614  -0.54275   0.79049
  12   28374.0    352.4   0.046895667   0.54411   0.00449  -0.29084  -0.67787
  13   28726.9    348.1   0.003546358   0.04064  -0.10372  -0.17260  -0.00967
  14   29542.0    338.5   0.017603629   0.19617   0.08138   0.25455   0.35320
  15   29898.6    334.5   0.230477621   2.53778  -1.05177   0.14261   1.18795
  16   30081.0    332.4   0.179667657   1.96631  -1.04019  -0.31505   0.88604
  17   30982.4    322.8   0.020986875   0.22300   0.36717   0.28223  -0.09237
  18   31027.2    322.3   0.013090449   0.13890   0.17656   0.17468  -0.27787
  19   31385.1    318.6   0.061414969   0.64421  -0.31549   0.05006   0.73632
  20   31624.9    316.2   0.000969709   0.01009  -0.07195   0.03197  -0.06242
  21   32002.9    312.5   0.287030065   2.95267  -1.50482   0.80800  -0.18795
  22   32584.9    306.9   0.049210279   0.49718  -0.36914  -0.53766   0.26802
  23   32914.2    303.8   0.233377975   2.33428  -1.32728   0.75546   0.04347
  24   33333.4    300.0   0.083235721   0.82207   0.65284   0.17785  -0.60352
  25   33812.7    295.7   0.053069267   0.51670  -0.48146  -0.35612   0.39759
  26   34231.0    292.1   0.008324556   0.08006   0.10858   0.25409   0.06089
  27   34404.9    290.7   0.125079664   1.19686  -0.21417  -1.04700   0.23405
  28   34933.2    286.3   0.059183637   0.55775  -0.35579  -0.05106   0.65464
  29   34998.5    285.7   0.091047877   0.85644  -0.66412   0.64366  -0.03299
  30   35230.3    283.8   0.032461628   0.30334   0.28976  -0.43019  -0.18525
  31   35992.3    277.8   0.033311472   0.30469  -0.13200   0.15060   0.51438
  32   36365.1    275.0   0.006950459   0.06292  -0.16016   0.19161  -0.02354
  33   36858.2    271.3   0.048251501   0.43098   0.00634   0.62206   0.20970
  34   37035.8    270.0   0.006283274   0.05585  -0.21933   0.07625   0.04396
  35   37197.3    268.8   0.146389342   1.29561  -0.41162   1.03163   0.24882
  36   37469.2    266.9   0.003941655   0.03463   0.14168   0.06313  -0.10282
  37   37575.6    266.1   0.017587448   0.15409   0.30776   0.15609   0.18711
  38   37654.5    265.6   0.013258186   0.11592   0.02807  -0.30506  -0.14855
  39   37813.3    264.5   0.061708403   0.53725   0.43901  -0.25635  -0.52802
  40   38048.5    262.8   0.004800826   0.04154  -0.07027   0.18787   0.03612
  41   38467.8    260.0   0.061190293   0.52367  -0.06014  -0.07473   0.71727
  42   38531.7    259.5   0.039520817   0.33766   0.01258  -0.09301  -0.57346
  43   38655.8    258.7   0.152062797   1.29504   0.21280  -1.05337   0.37440
  44   38944.5    256.8   0.012928349   0.10929   0.06389  -0.29765   0.12888
  45   39514.2    253.1   0.000136643   0.00114  -0.00282  -0.00597  -0.03309
  46   40241.3    248.5   0.059814726   0.48934   0.10869   0.63714  -0.26755

FINAL SINGLE POINT ENERGY     -7748.036114986065

DIPOLE MOMENT
-------------
                                X             Y             Z
Electronic contribution:    193.30768     -93.69953     -57.15776
Nuclear contribution   :   -196.75326      95.21506      58.98919
                        -----------------------------------------
Total Dipole Moment    :     -3.44558       1.51553       1.83143
                        -----------------------------------------
Magnitude (a.u.)       :      4.18605
Magnitude (Debye)      :     10.64009

Rotational constants in cm-1:     0.000906     0.000313     0.000253
Rotational constants in MHz :    27.159591     9.375759     7.580192

                             ****ORCA TERMINATED NORMALLY****
TOTAL RUN TIME: 0 days 0 hours 17 minutes 37 seconds 57 msec
