                         Program Version 4.2.0 -  RELEASE  -
|  1> # ORCA input file
|  2> # SCF done       -230.713309789335          0.000582381522
|  3> ! CAM-B3LYP def2-SVP def2/J RIJCOSX Grid4 TightSCF
|  4> %maxcore 5000
|  5> %tddft
|  6>     Mode sTDDFT
|  7>     Ethresh 5.0
|  8>     maxcore 5000
|  9> end
| 10>
| 11> %pal
| 12>   nprocs 6
| 13>   end
| 14> * xyz 0 1
| 15>    C       -5.71083        -1.01376        -9.28298
| 16>    C       -6.24863        -1.21915       -10.52269
| 17>    F       -6.28999        -0.22005       -11.41247
| 18>    C       -6.76548        -2.48089       -10.88092
| 19>    F       -7.28632        -2.65332       -12.10252
| 20>    C       -6.73724        -3.52014        -9.99370
| 21>    C       -6.18926        -3.33966        -8.70885
| 22>    C       -5.66629        -2.06475        -8.34492
| 23>    C       -5.11113        -1.85919        -7.06071
| 24>    C       -5.07903        -2.89665        -6.16611
| 25>    C       -5.60351        -4.16523        -6.54081
| 26>    C       -6.14618        -4.39547        -7.77232
| 27>    C       -5.45169        -5.10020        -5.41604
| 28>    O       -5.79568        -6.26906        -5.39924
| 29>    C       -4.80621        -4.34486        -4.33491
| 30>    C       -4.58004        -2.98466        -4.79434
| 31>    C       -4.01490        -1.95203        -4.09542
| 32>    C       -3.53448        -2.01076        -2.76880
| 33>    N       -3.12215        -1.96727        -1.69846
| 34>    C       -3.83341        -0.65296        -4.61833
| 35>    N       -3.65996         0.42173        -4.98120
| 36>    C       -4.47684        -4.85517        -3.10759
| 37>    C       -4.67677        -6.14863        -2.59347
| 38>    C       -4.27481        -6.48833        -1.29407
| 39>    F       -3.67388        -5.60938        -0.49283
| 40>    C       -4.56085        -7.79656        -0.93559
| 41>    C       -5.19754        -8.48671        -1.98235
| 42>    S       -5.43127        -7.52137        -3.39034
| 43>    C       -5.49926        -9.80125        -1.61630
| 44>    C       -5.09227       -10.09878        -0.30906
| 45>    S       -4.32279        -8.76216         0.49774
| 46>    C       -5.41111       -11.41014         0.06089
| 47>    F       -5.03734       -11.93685         1.22575
| 48>    C       -6.05691       -12.11718        -0.94114
| 49>    S       -6.22848       -11.15624        -2.39136
| 50>    C       -6.57111       -13.45341        -0.93114
| 51>    C       -7.04952       -14.10484         0.22260
| 52>    C       -7.51456       -15.46210         0.17892
| 53>    N       -7.94863       -16.04851         1.31520
| 54>    C       -7.97895       -15.37003         2.41317
| 55>    C       -7.59169       -13.99817         2.43449
| 56>    N       -7.14751       -13.40966         1.37686
| 57>    F       -7.70927       -13.28339         3.54566
| 58>    F       -8.40102       -15.97989         3.51285
| 59>    C       -7.55906       -16.22083        -1.01023
| 60>    C       -7.19526       -15.52842        -2.18387
| 61>    C       -6.70563       -14.17050        -2.13554
| 62>    N       -6.44092       -13.69673        -3.35491
| 63>    S       -6.79596       -14.82107        -4.44097
| 64>    N       -7.29268       -15.96107        -3.44206
| 65>    C       -8.02333       -17.57295        -1.00042
| 66>    C       -7.84242       -18.56278        -1.95603
| 67>    F       -7.04105       -18.45517        -3.01523
| 68>    C       -8.53279       -19.74331        -1.66784
| 69>    C       -9.24855       -19.66241        -0.46686
| 70>    S       -9.00895       -18.14787         0.32645
| 71>    C       -9.95997       -20.83869        -0.21157
| 72>    C       -9.78346       -21.79038        -1.22699
| 73>    S       -8.72317       -21.26034        -2.49815
| 74>    C      -10.50201       -22.96056        -0.98545
| 75>    F      -10.55602       -23.97790        -1.85011
| 76>    C      -11.23176       -22.93614         0.19615
| 77>    S      -11.02938       -21.39718         1.01328
| 78>    C      -12.12162       -23.89078         0.74159
| 79>    C      -12.25686       -25.22279         0.49697
| 80>    C      -13.54680       -25.87470         0.87870
| 81>    O      -14.40740       -25.40532         1.58431
| 82>    C      -13.55326       -27.16631         0.16680
| 83>    C      -14.55626       -28.08774         0.07114
| 84>    C      -14.34855       -29.24945        -0.70547
| 85>    C      -13.10266       -29.43053        -1.37405
| 86>    C      -12.90649       -30.58689        -2.15551
| 87>    C      -13.89846       -31.52057        -2.26541
| 88>    C      -15.12933       -31.34139        -1.60210
| 89>    C      -15.35099       -30.23012        -0.83805
| 90>    F      -16.08381       -32.27250        -1.72864
| 91>    F      -13.71002       -32.61877        -3.00778
| 92>    C      -12.07951       -28.46268        -1.24948
| 93>    C      -12.29989       -27.34955        -0.48373
| 94>    C      -11.43601       -26.21619        -0.16010
| 95>    C      -10.06912       -26.21815        -0.25098
| 96>    C       -9.25979       -25.19400         0.27530
| 97>    N       -8.58965       -24.36353         0.69842
| 98>    C       -9.31963       -27.27021        -0.81735
| 99>    N       -8.66677       -28.09784        -1.27013
|100>    H       -5.31999        -0.04176        -9.02544
|101>    H       -7.13672        -4.47965       -10.28261
|102>    H       -4.72498        -0.88226        -6.82018
|103>    H       -6.53639        -5.36929        -8.02613
|104>    H       -3.99244        -4.18898        -2.40221
|105>    H      -12.86700       -23.48307         1.41920
|106>    H      -15.49599       -27.93126         0.57848
|107>    H      -11.96941       -30.74122        -2.66723
|108>    H      -16.29852       -30.10738        -0.33721
|109>    H      -11.15034       -28.61927        -1.77367
|110> *
|111>
|112>                          ****END OF INPUT****

CARTESIAN COORDINATES (ANGSTROEM)
---------------------------------
  C     -5.710830   -1.013760   -9.282980
  C     -6.248630   -1.219150  -10.522690
  F     -6.289990   -0.220050  -11.412470
  C     -6.765480   -2.480890  -10.880920
  F     -7.286320   -2.653320  -12.102520
  C     -6.737240   -3.520140   -9.993700
  C     -6.189260   -3.339660   -8.708850
  C     -5.666290   -2.064750   -8.344920
  C     -5.111130   -1.859190   -7.060710
  C     -5.079030   -2.896650   -6.166110
  C     -5.603510   -4.165230   -6.540810
  C     -6.146180   -4.395470   -7.772320
  C     -5.451690   -5.100200   -5.416040
  O     -5.795680   -6.269060   -5.399240
  C     -4.806210   -4.344860   -4.334910
  C     -4.580040   -2.984660   -4.794340
  C     -4.014900   -1.952030   -4.095420
  C     -3.534480   -2.010760   -2.768800
  N     -3.122150   -1.967270   -1.698460
  C     -3.833410   -0.652960   -4.618330
  N     -3.659960    0.421730   -4.981200
  C     -4.476840   -4.855170   -3.107590
  C     -4.676770   -6.148630   -2.593470
  C     -4.274810   -6.488330   -1.294070
  F     -3.673880   -5.609380   -0.492830
  C     -4.560850   -7.796560   -0.935590
  C     -5.197540   -8.486710   -1.982350
  S     -5.431270   -7.521370   -3.390340
  C     -5.499260   -9.801250   -1.616300
  C     -5.092270  -10.098780   -0.309060
  S     -4.322790   -8.762160    0.497740
  C     -5.411110  -11.410140    0.060890
  F     -5.037340  -11.936850    1.225750
  C     -6.056910  -12.117180   -0.941140
  S     -6.228480  -11.156240   -2.391360
  C     -6.571110  -13.453410   -0.931140
  C     -7.049520  -14.104840    0.222600
  C     -7.514560  -15.462100    0.178920
  N     -7.948630  -16.048510    1.315200
  C     -7.978950  -15.370030    2.413170
  C     -7.591690  -13.998170    2.434490
  N     -7.147510  -13.409660    1.376860
  F     -7.709270  -13.283390    3.545660
  F     -8.401020  -15.979890    3.512850
  C     -7.559060  -16.220830   -1.010230
  C     -7.195260  -15.528420   -2.183870
  C     -6.705630  -14.170500   -2.135540
  N     -6.440920  -13.696730   -3.354910
  S     -6.795960  -14.821070   -4.440970
  N     -7.292680  -15.961070   -3.442060
  C     -8.023330  -17.572950   -1.000420
  C     -7.842420  -18.562780   -1.956030
  F     -7.041050  -18.455170   -3.015230
  C     -8.532790  -19.743310   -1.667840
  C     -9.248550  -19.662410   -0.466860
  S     -9.008950  -18.147870    0.326450
  C     -9.959970  -20.838690   -0.211570
  C     -9.783460  -21.790380   -1.226990
  S     -8.723170  -21.260340   -2.498150
  C    -10.502010  -22.960560   -0.985450
  F    -10.556020  -23.977900   -1.850110
  C    -11.231760  -22.936140    0.196150
  S    -11.029380  -21.397180    1.013280
  C    -12.121620  -23.890780    0.741590
  C    -12.256860  -25.222790    0.496970
  C    -13.546800  -25.874700    0.878700
  O    -14.407400  -25.405320    1.584310
  C    -13.553260  -27.166310    0.166800
  C    -14.556260  -28.087740    0.071140
  C    -14.348550  -29.249450   -0.705470
  C    -13.102660  -29.430530   -1.374050
  C    -12.906490  -30.586890   -2.155510
  C    -13.898460  -31.520570   -2.265410
  C    -15.129330  -31.341390   -1.602100
  C    -15.350990  -30.230120   -0.838050
  F    -16.083810  -32.272500   -1.728640
  F    -13.710020  -32.618770   -3.007780
  C    -12.079510  -28.462680   -1.249480
  C    -12.299890  -27.349550   -0.483730
  C    -11.436010  -26.216190   -0.160100
  C    -10.069120  -26.218150   -0.250980
  C     -9.259790  -25.194000    0.275300
  N     -8.589650  -24.363530    0.698420
  C     -9.319630  -27.270210   -0.817350
  N     -8.666770  -28.097840   -1.270130
  H     -5.319990   -0.041760   -9.025440
  H     -7.136720   -4.479650  -10.282610
  H     -4.724980   -0.882260   -6.820180
  H     -6.536390   -5.369290   -8.026130
  H     -3.992440   -4.188980   -2.402210
  H    -12.867000  -23.483070    1.419200
  H    -15.495990  -27.931260    0.578480
  H    -11.969410  -30.741220   -2.667230
  H    -16.298520  -30.107380   -0.337210
  H    -11.150340  -28.619270   -1.773670

 Total Charge           Charge          ....    0
 Multiplicity           Mult            ....    1
 Number of Electrons    NEL             ....  632
 Basis Dimension        Dim             .... 1268

ORBITAL ENERGIES
----------------

  NO   OCC          E(Eh)            E(eV)
   0   2.0000     -89.051255     -2423.2078
   1   2.0000     -88.985270     -2421.4123
   2   2.0000     -88.982888     -2421.3475
   3   2.0000     -88.981217     -2421.3020
   4   2.0000     -88.979189     -2421.2468
   5   2.0000     -88.979002     -2421.2417
   6   2.0000     -88.978870     -2421.2382
   7   2.0000     -24.826942      -675.5754
   8   2.0000     -24.823450      -675.4804
   9   2.0000     -24.821620      -675.4306
  10   2.0000     -24.816847      -675.3007
  11   2.0000     -24.803322      -674.9327
  12   2.0000     -24.803042      -674.9251
  13   2.0000     -24.801130      -674.8731
  14   2.0000     -24.799816      -674.8373
  15   2.0000     -24.798999      -674.8151
  16   2.0000     -24.798564      -674.8032
  17   2.0000     -19.228086      -523.2228
  18   2.0000     -19.219899      -523.0000
  19   2.0000     -14.466614      -393.6566
  20   2.0000     -14.460168      -393.4812
  21   2.0000     -14.458396      -393.4330
  22   2.0000     -14.457271      -393.4023
  23   2.0000     -14.419532      -392.3754
  24   2.0000     -14.418872      -392.3575
  25   2.0000     -14.418590      -392.3498
  26   2.0000     -14.417011      -392.3068
  27   2.0000     -10.443102      -284.1712
  28   2.0000     -10.438485      -284.0456
  29   2.0000     -10.397348      -282.9262
  30   2.0000     -10.396063      -282.8913
  31   2.0000     -10.387160      -282.6490
  32   2.0000     -10.385706      -282.6094
  33   2.0000     -10.384146      -282.5670
  34   2.0000     -10.383392      -282.5465
  35   2.0000     -10.382168      -282.5131
  36   2.0000     -10.381804      -282.5033
  37   2.0000     -10.375830      -282.3407
  38   2.0000     -10.370688      -282.2008
  39   2.0000     -10.356809      -281.8231
  40   2.0000     -10.356244      -281.8077
  41   2.0000     -10.350057      -281.6394
  42   2.0000     -10.349324      -281.6194
  43   2.0000     -10.346416      -281.5403
  44   2.0000     -10.345438      -281.5137
  45   2.0000     -10.344847      -281.4976
  46   2.0000     -10.343246      -281.4540
  47   2.0000     -10.337744      -281.3043
  48   2.0000     -10.332124      -281.1514
  49   2.0000     -10.331669      -281.1390
  50   2.0000     -10.331558      -281.1360
  51   2.0000     -10.331339      -281.1300
  52   2.0000     -10.331281      -281.1285
  53   2.0000     -10.329047      -281.0677
  54   2.0000     -10.328937      -281.0647
  55   2.0000     -10.328907      -281.0639
  56   2.0000     -10.328560      -281.0544
  57   2.0000     -10.328386      -281.0497
  58   2.0000     -10.327313      -281.0205
  59   2.0000     -10.326334      -280.9938
  60   2.0000     -10.326260      -280.9918
  61   2.0000     -10.325947      -280.9833
  62   2.0000     -10.325812      -280.9796
  63   2.0000     -10.321047      -280.8500
  64   2.0000     -10.321045      -280.8499
  65   2.0000     -10.320151      -280.8256
  66   2.0000     -10.320094      -280.8240
  67   2.0000     -10.313423      -280.6425
  68   2.0000     -10.313116      -280.6342
  69   2.0000     -10.311823      -280.5990
  70   2.0000     -10.311338      -280.5858
  71   2.0000     -10.310458      -280.5618
  72   2.0000     -10.309223      -280.5282
  73   2.0000     -10.306417      -280.4519
  74   2.0000     -10.304896      -280.4105
  75   2.0000     -10.304668      -280.4043
  76   2.0000     -10.304367      -280.3961
  77   2.0000     -10.304063      -280.3878
  78   2.0000     -10.303082      -280.3611
  79   2.0000     -10.302917      -280.3566
  80   2.0000     -10.302904      -280.3563
  81   2.0000     -10.302163      -280.3361
  82   2.0000     -10.301104      -280.3073
  83   2.0000     -10.296833      -280.1911
  84   2.0000     -10.295458      -280.1537
  85   2.0000      -8.142602      -221.5715
  86   2.0000      -8.080433      -219.8798
  87   2.0000      -8.077398      -219.7972
  88   2.0000      -8.075572      -219.7475
  89   2.0000      -8.073369      -219.6875
  90   2.0000      -8.072548      -219.6652
  91   2.0000      -8.071502      -219.6367
  92   2.0000      -6.113618      -166.3600
  93   2.0000      -6.105809      -166.1475
  94   2.0000      -6.105509      -166.1393
  95   2.0000      -6.050064      -164.6306
  96   2.0000      -6.047336      -164.5564
  97   2.0000      -6.046063      -164.5217
  98   2.0000      -6.045577      -164.5085
  99   2.0000      -6.043298      -164.4465
 100   2.0000      -6.043082      -164.4406
 101   2.0000      -6.042443      -164.4232
 102   2.0000      -6.041666      -164.4021
 103   2.0000      -6.041512      -164.3979
 104   2.0000      -6.041381      -164.3943
 105   2.0000      -6.038791      -164.3239
 106   2.0000      -6.038137      -164.3061
 107   2.0000      -6.037964      -164.3013
 108   2.0000      -6.036861      -164.2713
 109   2.0000      -6.036230      -164.2542
 110   2.0000      -6.034732      -164.2134
 111   2.0000      -6.033777      -164.1874
 112   2.0000      -6.032780      -164.1603
 113   2.0000      -1.354331       -36.8532
 114   2.0000      -1.339401       -36.4470
 115   2.0000      -1.337052       -36.3830
 116   2.0000      -1.332161       -36.2499
 117   2.0000      -1.323717       -36.0202
 118   2.0000      -1.321909       -35.9710
 119   2.0000      -1.319967       -35.9181
 120   2.0000      -1.319932       -35.9172
 121   2.0000      -1.308806       -35.6144
 122   2.0000      -1.307033       -35.5662
 123   2.0000      -1.149868       -31.2895
 124   2.0000      -1.144281       -31.1375
 125   2.0000      -1.135947       -30.9107
 126   2.0000      -1.124254       -30.5925
 127   2.0000      -1.051128       -28.6026
 128   2.0000      -1.042721       -28.3739
 129   2.0000      -1.040379       -28.3101
 130   2.0000      -1.022766       -27.8309
 131   2.0000      -1.022480       -27.8231
 132   2.0000      -1.009206       -27.4619
 133   2.0000      -1.007430       -27.4136
 134   2.0000      -1.006659       -27.3926
 135   2.0000      -1.005856       -27.3707
 136   2.0000      -0.997981       -27.1564
 137   2.0000      -0.996750       -27.1230
 138   2.0000      -0.995508       -27.0891
 139   2.0000      -0.985268       -26.8105
 140   2.0000      -0.983489       -26.7621
 141   2.0000      -0.981041       -26.6955
 142   2.0000      -0.953982       -25.9592
 143   2.0000      -0.947431       -25.7809
 144   2.0000      -0.933353       -25.3978
 145   2.0000      -0.932447       -25.3732
 146   2.0000      -0.908899       -24.7324
 147   2.0000      -0.908157       -24.7122
 148   2.0000      -0.901782       -24.5387
 149   2.0000      -0.896032       -24.3823
 150   2.0000      -0.894789       -24.3484
 151   2.0000      -0.894145       -24.3309
 152   2.0000      -0.887691       -24.1553
 153   2.0000      -0.886245       -24.1160
 154   2.0000      -0.872739       -23.7484
 155   2.0000      -0.862156       -23.4604
 156   2.0000      -0.852974       -23.2106
 157   2.0000      -0.850318       -23.1383
 158   2.0000      -0.843495       -22.9527
 159   2.0000      -0.842028       -22.9128
 160   2.0000      -0.832874       -22.6636
 161   2.0000      -0.823504       -22.4087
 162   2.0000      -0.820183       -22.3183
 163   2.0000      -0.816848       -22.2276
 164   2.0000      -0.807753       -21.9801
 165   2.0000      -0.796638       -21.6776
 166   2.0000      -0.787158       -21.4197
 167   2.0000      -0.774519       -21.0757
 168   2.0000      -0.772008       -21.0074
 169   2.0000      -0.769236       -20.9320
 170   2.0000      -0.764843       -20.8124
 171   2.0000      -0.751924       -20.4609
 172   2.0000      -0.745428       -20.2841
 173   2.0000      -0.734860       -19.9966
 174   2.0000      -0.727672       -19.8010
 175   2.0000      -0.719919       -19.5900
 176   2.0000      -0.719261       -19.5721
 177   2.0000      -0.710362       -19.3299
 178   2.0000      -0.700631       -19.0651
 179   2.0000      -0.696777       -18.9603
 180   2.0000      -0.692038       -18.8313
 181   2.0000      -0.689858       -18.7720
 182   2.0000      -0.687601       -18.7106
 183   2.0000      -0.686057       -18.6686
 184   2.0000      -0.684743       -18.6328
 185   2.0000      -0.680962       -18.5299
 186   2.0000      -0.679603       -18.4929
 187   2.0000      -0.673624       -18.3302
 188   2.0000      -0.672784       -18.3074
 189   2.0000      -0.663834       -18.0638
 190   2.0000      -0.661697       -18.0057
 191   2.0000      -0.656260       -17.8577
 192   2.0000      -0.649814       -17.6823
 193   2.0000      -0.646974       -17.6050
 194   2.0000      -0.644151       -17.5283
 195   2.0000      -0.643361       -17.5067
 196   2.0000      -0.640605       -17.4317
 197   2.0000      -0.639059       -17.3897
 198   2.0000      -0.628854       -17.1120
 199   2.0000      -0.625338       -17.0163
 200   2.0000      -0.621501       -16.9119
 201   2.0000      -0.617906       -16.8141
 202   2.0000      -0.613863       -16.7041
 203   2.0000      -0.606456       -16.5025
 204   2.0000      -0.604318       -16.4443
 205   2.0000      -0.598938       -16.2979
 206   2.0000      -0.596038       -16.2190
 207   2.0000      -0.593345       -16.1457
 208   2.0000      -0.591958       -16.1080
 209   2.0000      -0.589242       -16.0341
 210   2.0000      -0.588138       -16.0040
 211   2.0000      -0.587870       -15.9967
 212   2.0000      -0.586377       -15.9561
 213   2.0000      -0.584458       -15.9039
 214   2.0000      -0.582449       -15.8492
 215   2.0000      -0.580951       -15.8085
 216   2.0000      -0.580305       -15.7909
 217   2.0000      -0.578262       -15.7353
 218   2.0000      -0.575780       -15.6678
 219   2.0000      -0.571366       -15.5477
 220   2.0000      -0.563988       -15.3469
 221   2.0000      -0.562124       -15.2962
 222   2.0000      -0.558810       -15.2060
 223   2.0000      -0.556760       -15.1502
 224   2.0000      -0.556212       -15.1353
 225   2.0000      -0.555630       -15.1195
 226   2.0000      -0.549728       -14.9589
 227   2.0000      -0.549682       -14.9576
 228   2.0000      -0.548031       -14.9127
 229   2.0000      -0.546297       -14.8655
 230   2.0000      -0.545180       -14.8351
 231   2.0000      -0.542516       -14.7626
 232   2.0000      -0.537128       -14.6160
 233   2.0000      -0.534263       -14.5380
 234   2.0000      -0.533347       -14.5131
 235   2.0000      -0.531588       -14.4652
 236   2.0000      -0.529067       -14.3967
 237   2.0000      -0.525705       -14.3052
 238   2.0000      -0.524552       -14.2738
 239   2.0000      -0.523341       -14.2408
 240   2.0000      -0.521755       -14.1977
 241   2.0000      -0.520550       -14.1649
 242   2.0000      -0.518979       -14.1221
 243   2.0000      -0.517804       -14.0902
 244   2.0000      -0.515282       -14.0215
 245   2.0000      -0.513574       -13.9751
 246   2.0000      -0.509450       -13.8628
 247   2.0000      -0.506438       -13.7809
 248   2.0000      -0.505872       -13.7655
 249   2.0000      -0.503433       -13.6991
 250   2.0000      -0.501366       -13.6429
 251   2.0000      -0.498635       -13.5686
 252   2.0000      -0.496209       -13.5025
 253   2.0000      -0.494185       -13.4475
 254   2.0000      -0.492854       -13.4112
 255   2.0000      -0.491000       -13.3608
 256   2.0000      -0.487764       -13.2727
 257   2.0000      -0.482819       -13.1382
 258   2.0000      -0.481757       -13.1093
 259   2.0000      -0.479739       -13.0544
 260   2.0000      -0.473939       -12.8965
 261   2.0000      -0.472221       -12.8498
 262   2.0000      -0.470632       -12.8065
 263   2.0000      -0.468860       -12.7583
 264   2.0000      -0.466225       -12.6866
 265   2.0000      -0.464578       -12.6418
 266   2.0000      -0.462951       -12.5975
 267   2.0000      -0.459342       -12.4993
 268   2.0000      -0.456362       -12.4182
 269   2.0000      -0.453320       -12.3355
 270   2.0000      -0.451750       -12.2927
 271   2.0000      -0.449183       -12.2229
 272   2.0000      -0.448102       -12.1935
 273   2.0000      -0.446926       -12.1615
 274   2.0000      -0.445623       -12.1260
 275   2.0000      -0.445525       -12.1233
 276   2.0000      -0.438804       -11.9405
 277   2.0000      -0.436160       -11.8685
 278   2.0000      -0.435589       -11.8530
 279   2.0000      -0.431901       -11.7526
 280   2.0000      -0.431578       -11.7438
 281   2.0000      -0.431250       -11.7349
 282   2.0000      -0.429252       -11.6805
 283   2.0000      -0.428948       -11.6723
 284   2.0000      -0.426512       -11.6060
 285   2.0000      -0.420950       -11.4546
 286   2.0000      -0.418771       -11.3953
 287   2.0000      -0.416831       -11.3425
 288   2.0000      -0.413843       -11.2613
 289   2.0000      -0.412948       -11.2369
 290   2.0000      -0.409120       -11.1327
 291   2.0000      -0.405781       -11.0419
 292   2.0000      -0.403325       -10.9750
 293   2.0000      -0.401490       -10.9251
 294   2.0000      -0.391247       -10.6464
 295   2.0000      -0.387797       -10.5525
 296   2.0000      -0.381113       -10.3706
 297   2.0000      -0.375989       -10.2312
 298   2.0000      -0.373819       -10.1721
 299   2.0000      -0.369569       -10.0565
 300   2.0000      -0.356876        -9.7111
 301   2.0000      -0.350950        -9.5498
 302   2.0000      -0.344576        -9.3764
 303   2.0000      -0.343820        -9.3558
 304   2.0000      -0.342716        -9.3258
 305   2.0000      -0.340180        -9.2568
 306   2.0000      -0.335209        -9.1215
 307   2.0000      -0.321638        -8.7522
 308   2.0000      -0.318364        -8.6631
 309   2.0000      -0.310803        -8.4574
 310   2.0000      -0.303475        -8.2580
 311   2.0000      -0.300865        -8.1870
 312   2.0000      -0.298088        -8.1114
 313   2.0000      -0.296584        -8.0705
 314   2.0000      -0.280492        -7.6326
 315   2.0000      -0.253936        -6.9099
 316   0.0000      -0.123883        -3.3710
 317   0.0000      -0.097865        -2.6631
 318   0.0000      -0.092396        -2.5142
 319   0.0000      -0.065645        -1.7863
 320   0.0000      -0.061745        -1.6802

MULLIKEN ATOMIC CHARGES
-----------------------
   0 C :   -0.107848
   1 C :    0.242193
   2 F :   -0.170111
   3 C :    0.238571
   4 F :   -0.170923
   5 C :   -0.104931
   6 C :    0.118272
   7 C :    0.115393
   8 C :   -0.085930
   9 C :    0.047530
  10 C :   -0.001207
  11 C :   -0.082917
  12 C :    0.172970
  13 O :   -0.185746
  14 C :   -0.091331
  15 C :    0.340163
  16 C :   -0.358119
  17 C :   -0.195516
  18 N :    0.158094
  19 C :   -0.181666
  20 N :    0.145892
  21 C :   -0.028373
  22 C :   -0.148979
  23 C :    0.197776
  24 F :   -0.153668
  25 C :   -0.048748
  26 C :   -0.057299
  27 S :    0.225601
  28 C :   -0.070610
  29 C :   -0.074235
  30 S :    0.211185
  31 C :    0.225552
  32 F :   -0.157952
  33 C :   -0.260514
  34 S :    0.218025
  35 C :    0.151432
  36 C :   -0.089213
  37 C :   -0.037012
  38 N :   -0.041925
  39 C :    0.147497
  40 C :    0.130321
  41 N :    0.034606
  42 F :   -0.132799
  43 F :   -0.131474
  44 C :    0.158763
  45 C :   -0.024825
  46 C :   -0.010212
  47 N :   -0.312495
  48 S :    0.554761
  49 N :   -0.265986
  50 C :   -0.251168
  51 C :    0.214767
  52 F :   -0.154112
  53 C :   -0.077089
  54 C :   -0.051959
  55 S :    0.202936
  56 C :   -0.064169
  57 C :   -0.080798
  58 S :    0.216689
  59 C :    0.226279
  60 F :   -0.156791
  61 C :   -0.180174
  62 S :    0.199570
  63 C :    0.076025
  64 C :   -0.131144
  65 C :    0.134157
  66 O :   -0.140977
  67 C :    0.016729
  68 C :   -0.079603
  69 C :    0.111036
  70 C :    0.111106
  71 C :   -0.105240
  72 C :    0.241541
  73 C :    0.237473
  74 C :   -0.102193
  75 F :   -0.172155
  76 F :   -0.170343
  77 C :   -0.080334
  78 C :    0.036891
  79 C :    0.274369
  80 C :   -0.321953
  81 C :   -0.202118
  82 N :    0.161763
  83 C :   -0.172229
  84 N :    0.152791
  85 H :    0.007744
  86 H :   -0.001491
  87 H :   -0.006802
  88 H :   -0.011886
  89 H :    0.022503
  90 H :    0.026962
  91 H :   -0.009416
  92 H :    0.005554
  93 H :   -0.001236
  94 H :   -0.003539
Sum of atomic charges:   -0.0000000

LOEWDIN ATOMIC CHARGES
----------------------
   0 C :   -0.028708
   1 C :    0.066764
   2 F :   -0.047608
   3 C :    0.067280
   4 F :   -0.048675
   5 C :   -0.033391
   6 C :   -0.009374
   7 C :   -0.006094
   8 C :    0.018056
   9 C :   -0.021402
  10 C :   -0.052536
  11 C :    0.030232
  12 C :    0.086288
  13 O :   -0.169609
  14 C :   -0.110240
  15 C :    0.075292
  16 C :   -0.139331
  17 C :   -0.024659
  18 N :   -0.044493
  19 C :   -0.016792
  20 N :   -0.054015
  21 C :    0.061536
  22 C :   -0.216028
  23 C :    0.071930
  24 F :   -0.031752
  25 C :   -0.222375
  26 C :   -0.196138
  27 S :    0.504122
  28 C :   -0.217244
  29 C :   -0.204552
  30 S :    0.432514
  31 C :    0.044681
  32 F :   -0.037719
  33 C :   -0.189615
  34 S :    0.486655
  35 C :   -0.045691
  36 C :   -0.008008
  37 C :   -0.014538
  38 N :   -0.059081
  39 C :    0.064607
  40 C :    0.056701
  41 N :   -0.028916
  42 F :   -0.022558
  43 F :   -0.020894
  44 C :   -0.036412
  45 C :   -0.046476
  46 C :   -0.047162
  47 N :   -0.305644
  48 S :    0.685470
  49 N :   -0.272687
  50 C :   -0.195007
  51 C :    0.049259
  52 F :   -0.034077
  53 C :   -0.209348
  54 C :   -0.213456
  55 S :    0.481479
  56 C :   -0.190684
  57 C :   -0.210304
  58 S :    0.443300
  59 C :    0.064620
  60 F :   -0.028872
  61 C :   -0.208340
  62 S :    0.463505
  63 C :    0.042823
  64 C :   -0.088394
  65 C :    0.084333
  66 O :   -0.140016
  67 C :   -0.055553
  68 C :    0.031665
  69 C :   -0.010356
  70 C :   -0.005000
  71 C :   -0.030390
  72 C :    0.067007
  73 C :    0.066407
  74 C :   -0.032576
  75 F :   -0.049363
  76 F :   -0.048344
  77 C :    0.013265
  78 C :   -0.018371
  79 C :    0.063712
  80 C :   -0.133917
  81 C :   -0.019324
  82 N :   -0.047323
  83 C :   -0.018474
  84 N :   -0.050121
  85 H :    0.048013
  86 H :    0.044441
  87 H :    0.040173
  88 H :    0.039805
  89 H :    0.051646
  90 H :    0.048022
  91 H :    0.040646
  92 H :    0.047270
  93 H :    0.044749
  94 H :    0.039756

  Mayer bond orders larger than 0.100000
B(  0-C ,  1-C ) :   1.4400 B(  0-C ,  5-C ) :   0.1083 B(  0-C ,  7-C ) :   1.1897
B(  0-C , 85-H ) :   1.0065 B(  1-C ,  2-F ) :   1.1354 B(  1-C ,  3-C ) :   1.1915
B(  3-C ,  4-F ) :   1.1343 B(  3-C ,  5-C ) :   1.4432 B(  5-C ,  6-C ) :   1.1913
B(  5-C , 86-H ) :   1.0069 B(  6-C ,  7-C ) :   1.2573 B(  6-C , 11-C ) :   1.1869
B(  7-C ,  8-C ) :   1.2143 B(  8-C ,  9-C ) :   1.4527 B(  8-C , 87-H ) :   0.9893
B(  9-C , 10-C ) :   1.2239 B(  9-C , 15-C ) :   0.9790 B( 10-C , 11-C ) :   1.4665
B( 10-C , 12-C ) :   0.9600 B( 11-C , 88-H ) :   1.0170 B( 12-C , 13-O ) :   2.1135
B( 12-C , 14-C ) :   0.9840 B( 14-C , 15-C ) :   1.0795 B( 14-C , 21-C ) :   1.4864
B( 15-C , 16-C ) :   1.6265 B( 16-C , 17-C ) :   1.1441 B( 16-C , 19-C ) :   1.1493
B( 17-C , 18-N ) :   2.9595 B( 19-C , 20-N ) :   2.9580 B( 21-C , 22-C ) :   1.2686
B( 21-C , 89-H ) :   0.9324 B( 22-C , 23-C ) :   1.3646 B( 22-C , 27-S ) :   1.0478
B( 23-C , 24-F ) :   1.1727 B( 23-C , 25-C ) :   1.3451 B( 25-C , 26-C ) :   1.4094
B( 25-C , 30-S ) :   1.0111 B( 26-C , 27-S ) :   1.0554 B( 26-C , 28-C ) :   1.3299
B( 28-C , 29-C ) :   1.4663 B( 28-C , 33-C ) :   0.1031 B( 28-C , 34-S ) :   1.0602
B( 29-C , 30-S ) :   1.0246 B( 29-C , 31-C ) :   1.2743 B( 31-C , 32-F ) :   1.2018
B( 31-C , 33-C ) :   1.4564 B( 33-C , 34-S ) :   1.1008 B( 33-C , 35-C ) :   1.0847
B( 35-C , 36-C ) :   1.3391 B( 35-C , 44-C ) :   0.1289 B( 35-C , 46-C ) :   1.2200
B( 36-C , 37-C ) :   1.1122 B( 36-C , 41-N ) :   1.4241 B( 37-C , 38-N ) :   1.3710
B( 37-C , 44-C ) :   1.3201 B( 38-N , 39-C ) :   1.6711 B( 39-C , 40-C ) :   1.0892
B( 39-C , 43-F ) :   1.1887 B( 40-C , 41-N ) :   1.6992 B( 40-C , 42-F ) :   1.1844
B( 44-C , 45-C ) :   1.2111 B( 44-C , 50-C ) :   1.1249 B( 45-C , 46-C ) :   1.1116
B( 45-C , 49-N ) :   1.5140 B( 46-C , 47-N ) :   1.4863 B( 47-N , 48-S ) :   1.2740
B( 47-N , 49-N ) :   0.1543 B( 48-S , 49-N ) :   1.3048 B( 50-C , 51-C ) :   1.4476
B( 50-C , 55-S ) :   1.0826 B( 51-C , 52-F ) :   1.2063 B( 51-C , 53-C ) :   1.2753
B( 53-C , 54-C ) :   1.4738 B( 53-C , 58-S ) :   1.0276 B( 54-C , 55-S ) :   1.0426
B( 54-C , 56-C ) :   1.3263 B( 56-C , 57-C ) :   1.4682 B( 56-C , 62-S ) :   1.0870
B( 57-C , 58-S ) :   1.0300 B( 57-C , 59-C ) :   1.3096 B( 59-C , 60-F ) :   1.1674
B( 59-C , 61-C ) :   1.4184 B( 61-C , 62-S ) :   1.0694 B( 61-C , 63-C ) :   1.1451
B( 63-C , 64-C ) :   1.6666 B( 63-C , 90-H ) :   0.9223 B( 64-C , 65-C ) :   0.9371
B( 64-C , 79-C ) :   1.0481 B( 65-C , 66-O ) :   2.2668 B( 65-C , 67-C ) :   0.9208
B( 67-C , 68-C ) :   1.4736 B( 67-C , 78-C ) :   1.2220 B( 68-C , 69-C ) :   1.1942
B( 68-C , 91-H ) :   1.0156 B( 69-C , 70-C ) :   1.2594 B( 69-C , 74-C ) :   1.1920
B( 70-C , 71-C ) :   1.1901 B( 70-C , 77-C ) :   1.2141 B( 71-C , 72-C ) :   1.4413
B( 71-C , 74-C ) :   0.1088 B( 71-C , 92-H ) :   1.0064 B( 72-C , 73-C ) :   1.1935
B( 72-C , 76-F ) :   1.1354 B( 73-C , 74-C ) :   1.4439 B( 73-C , 75-F ) :   1.1325
B( 74-C , 93-H ) :   1.0063 B( 77-C , 78-C ) :   1.4605 B( 77-C , 94-H ) :   0.9925
B( 78-C , 79-C ) :   0.9925 B( 79-C , 80-C ) :   1.6515 B( 80-C , 81-C ) :   1.1670
B( 80-C , 83-C ) :   1.1320 B( 81-C , 82-N ) :   2.9954 B( 83-C , 84-N ) :   2.9855

-----------------------------------------------------------------------------
         ABSORPTION SPECTRUM VIA TRANSITION ELECTRIC DIPOLE MOMENTS
-----------------------------------------------------------------------------
State   Energy  Wavelength   fosc         T2         TX        TY        TZ
        (cm-1)    (nm)                  (au**2)     (au)      (au)      (au)
-----------------------------------------------------------------------------
   0   13062.2    765.6   1.488033596  37.50357   1.82242   5.78672  -0.83441
   1   20093.9    497.7   0.156589138   2.56551   0.29810  -0.65900   1.42911
   2   21103.5    473.9   1.161154202  18.11390   0.70682   3.92850  -1.47688
   3   21674.3    461.4   0.137277228   2.08511  -0.67306  -1.27003  -0.13832
   4   22077.0    453.0   0.016790312   0.25038   0.21264   0.09184   0.44354
   5   22415.0    446.1   0.025889243   0.38024  -0.20388   0.41995   0.40288
   6   26381.7    379.1   0.038771649   0.48382   0.06840  -0.57090   0.39144
   7   26718.7    374.3   0.014886645   0.18342  -0.22879  -0.25452  -0.25749
   8   26871.5    372.1   0.005504028   0.06743  -0.23259   0.11390  -0.01899
   9   27248.4    367.0   0.042165872   0.50944   0.27194   0.56238   0.34529
  10   27714.8    360.8   0.061995310   0.73642  -0.10237  -0.42161   0.74039
  11   28193.7    354.7   0.042655115   0.49807  -0.24131   0.55803   0.35840
  12   28551.0    350.3   0.195316601   2.25213   1.18428   0.54755   0.74149
  13   28646.5    349.1   0.001210730   0.01391  -0.00177   0.11781   0.00572
  14   28791.2    347.3   0.238428906   2.72631   0.22742   1.00161  -1.29281
  15   29320.3    341.1   0.009709318   0.10902  -0.32267  -0.06975   0.00602
  16   29607.9    337.7   0.004465449   0.04965   0.19406   0.08138  -0.07328
  17   29783.4    335.8   0.071780129   0.79342   0.15351  -0.11770   0.86949
  18   30129.7    331.9   0.242175622   2.64613  -0.95632  -1.31359   0.07780
  19   30383.9    329.1   0.004312497   0.04673   0.11998   0.15420   0.09248
  20   30783.1    324.9   0.140611111   1.50377   0.34215   0.00427  -1.17758
  21   31060.0    322.0   0.064822322   0.68707  -0.49922  -0.49591  -0.43809
  22   31236.5    320.1   0.049786209   0.52471  -0.25462  -0.66759  -0.11918
  23   31938.8    313.1   0.172976007   1.78296  -0.51773  -0.44267  -1.14846
  24   32358.7    309.0   0.293782769   2.98889  -0.26145  -1.47501   0.86307
  25   32830.8    304.6   0.213320232   2.13908   0.53235   1.32061   0.33419
  26   33240.2    300.8   0.130644029   1.29390  -0.81728  -0.54058  -0.57769
  27   33371.7    299.7   0.070579858   0.69627  -0.44000  -0.36549  -0.60752
  28   33605.5    297.6   0.206816772   2.02606  -0.42989   0.05237  -1.35592
  29   33813.8    295.7   0.003903376   0.03800  -0.10246   0.00586  -0.16575
  30   34126.1    293.0   0.357587666   3.44962  -1.28726  -1.01854  -0.86900
  31   34231.0    292.1   0.231231932   2.22384  -0.12337  -0.22977   1.46827
  32   34550.7    289.4   0.194769520   1.85584   0.97740   0.64965   0.69173
  33   35186.9    284.2   0.021279488   0.19909   0.35847  -0.19121  -0.18447
  34   35359.3    282.8   0.058466743   0.54435   0.31248   0.27024   0.61129
  35   35392.3    282.5   0.023591620   0.21944   0.02904  -0.26848   0.38278
  36   35582.5    281.0   0.014669534   0.13572  -0.22850   0.21537  -0.19268
  37   35927.4    278.3   0.057036945   0.52264  -0.02352  -0.23211   0.68426
  38   36067.0    277.3   0.015897263   0.14511   0.35433  -0.01780   0.13871
  39   36192.7    276.3   0.091041086   0.82812  -0.58717  -0.39194  -0.57422
  40   36304.3    275.4   0.083131189   0.75384  -0.14185  -0.61540   0.59583
  41   36505.7    273.9   0.172779723   1.55814  -0.58452  -0.79083  -0.76881
  42   36716.2    272.4   0.454138701   4.07199   1.56775   1.27047  -0.00609
  43   36780.0    271.9   0.003265290   0.02923   0.00162  -0.00231  -0.17094
  44   37272.6    268.3   0.039686564   0.35053  -0.21500  -0.41651  -0.36169
  45   37476.1    266.8   0.018795732   0.16511  -0.25208   0.31863  -0.00641
  46   37735.5    265.0   0.002700667   0.02356   0.01123  -0.14967  -0.03215
  47   37839.5    264.3   0.000538767   0.00469  -0.06414  -0.00329  -0.02372
  48   38296.5    261.1   0.411257996   3.53534   0.21583  -0.26556  -1.84885
  49   38791.0    257.8   0.099904506   0.84787  -0.16612   0.05170  -0.90421
  50   39146.0    255.5   0.179831478   1.51236   0.01923  -1.17399   0.36569
  51   39249.5    254.8   0.062117067   0.52102  -0.52622  -0.03395   0.49290
  52   39496.9    253.2   0.047706430   0.39764   0.13513   0.51006  -0.34528
  53   39728.4    251.7   0.029497206   0.24443  -0.07584  -0.06571  -0.48411
  54   39908.8    250.6   0.029035283   0.23952  -0.27191   0.40081   0.07020
  55   40057.8    249.6   0.028737251   0.23618  -0.11407  -0.44469   0.15942

FINAL SINGLE POINT ENERGY     -6584.916863154067

DIPOLE MOMENT
-------------
                                X             Y             Z
Electronic contribution:      7.49474      -1.99487      11.94811
Nuclear contribution   :     -9.30132       0.96582     -13.27194
                        -----------------------------------------
Total Dipole Moment    :     -1.80658      -1.02905      -1.32383
                        -----------------------------------------
Magnitude (a.u.)       :      2.46479
Magnitude (Debye)      :      6.26500

Rotational constants in cm-1:     0.001381     0.000128     0.000119
Rotational constants in MHz :    41.402793     3.822741     3.580809

                             ****ORCA TERMINATED NORMALLY****
TOTAL RUN TIME: 0 days 0 hours 10 minutes 24 seconds 621 msec
