                         Program Version 4.2.0 -  RELEASE  -
|  1> # ORCA input file
|  2> # SCF done       -217.677249071437          0.000758797992
|  3> ! CAM-B3LYP def2-SVP def2/J RIJCOSX Grid4 TightSCF
|  4> %maxcore 5000
|  5> %tddft
|  6>     Mode sTDDFT
|  7>     Ethresh 5.0
|  8>     maxcore 5000
|  9> end
| 10>
| 11> %pal
| 12>   nprocs 6
| 13>   end
| 14> * xyz 0 1
| 15>    C       -1.69329        12.92592        -4.77101
| 16>    C       -1.25366        12.12547        -5.79102
| 17>    C       -2.08361        11.65529        -6.82861
| 18>    N       -2.72772        11.22437        -7.67547
| 19>    C        0.09173        11.73710        -5.96372
| 20>    N        1.17623        11.43946        -6.19207
| 21>    C       -3.00311        13.56408        -4.69977
| 22>    C       -2.92158        14.66755        -3.80038
| 23>    C       -3.99382        15.47755        -3.56031
| 24>    C       -5.21987        15.20930        -4.20955
| 25>    C       -5.31211        14.09862        -5.09747
| 26>    C       -4.18307        13.28156        -5.33424
| 27>    C       -6.54350        13.83725        -5.73223
| 28>    C       -7.63184        14.63428        -5.50412
| 29>    C       -7.53994        15.72814        -4.63044
| 30>    C       -6.35973        16.00988        -3.99785
| 31>    C       -1.56686        14.72651        -3.22171
| 32>    O       -1.11202        15.55563        -2.46770
| 33>    C       -0.87971        13.49572        -3.71137
| 34>    C        0.23493        13.05719        -3.08011
| 35>    C        0.84181        11.75273        -3.12685
| 36>    C        2.21896        11.62873        -2.90081
| 37>    C        2.84537        10.40051        -2.94690
| 38>    C        2.08092         9.26853        -3.19309
| 39>    C        0.69107         9.37548        -3.38305
| 40>    C        0.07378        10.59874        -3.34944
| 41>    C        0.07805         8.01858        -3.63947
| 42>    C       -0.97588         7.66192        -2.58794
| 43>    C       -0.52118         7.95918        -5.04956
| 44>    C        1.28908         7.12014        -3.53682
| 45>    C        1.34882         5.75361        -3.65399
| 46>    C        2.58295         5.10663        -3.51693
| 47>    C        3.73251         5.86221        -3.26117
| 48>    C        3.67607         7.23695        -3.14886
| 49>    C        2.44883         7.87126        -3.28321
| 50>    C        2.66494         3.65438        -3.61832
| 51>    C        1.89846         2.91490        -4.53292
| 52>    C        1.92473         1.47394        -4.57291
| 53>    N        1.18850         0.82709        -5.51172
| 54>    C        0.46882         1.50836        -6.33339
| 55>    C        0.43284         2.93085        -6.28482
| 56>    N        1.12682         3.58878        -5.42326
| 57>    F       -0.31796         3.62398        -7.14073
| 58>    F       -0.23900         0.83736        -7.24290
| 59>    C        2.70712         0.71137        -3.68918
| 60>    C        3.52169         1.45087        -2.81301
| 61>    C        3.50353         2.89877        -2.78136
| 62>    N        4.32371         3.37926        -1.83865
| 63>    S        5.03165         2.15837        -1.08715
| 64>    N        4.35376         0.95315        -1.88975
| 65>    C        2.65938        -0.74497        -3.65105
| 66>    C        3.81183        -1.48531        -3.36121
| 67>    C        3.78103        -2.86338        -3.28910
| 68>    C        2.57850        -3.52099        -3.50968
| 69>    C        1.41930        -2.78760        -3.81320
| 70>    C        1.45119        -1.41692        -3.87738
| 71>    C        0.24044        -3.70870        -4.02752
| 72>    C       -0.89008        -3.41442        -3.03780
| 73>    C       -0.26633        -3.60702        -5.47032
| 74>    C        0.86520        -5.05979        -3.76339
| 75>    C        0.27542        -6.29704        -3.78025
| 76>    C        1.03666        -7.43111        -3.44592
| 77>    C        2.40596        -7.28925        -3.18492
| 78>    C        3.00941        -6.04839        -3.20388
| 79>    C        2.23557        -4.92691        -3.46953
| 80>    C        0.37028        -8.70656        -3.42497
| 81>    C        0.59179        -9.75088        -2.58530
| 82>    C       -0.09873       -11.03160        -2.64482
| 83>    C       -0.76851       -11.54071        -3.72542
| 84>    C       -1.39967       -12.80224        -3.73923
| 85>    N       -1.93615       -13.81473        -3.80995
| 86>    C       -0.89580       -10.90120        -4.97686
| 87>    N       -1.02933       -10.45552        -6.02663
| 88>    C        0.11601       -11.71652        -1.37786
| 89>    C        0.98939       -10.92550        -0.57969
| 90>    C        1.35946        -9.69798        -1.30852
| 91>    O        2.08487        -8.81764        -0.90167
| 92>    C        1.37382       -11.31373         0.67120
| 93>    C        0.89129       -12.53495         1.19210
| 94>    C        0.01071       -13.32948         0.40248
| 95>    C       -0.36897       -12.90170        -0.88999
| 96>    C       -0.47086       -14.54267         0.93569
| 97>    C       -0.10086       -14.95322         2.18725
| 98>    C        0.76711       -14.17053         2.96335
| 99>    C        1.25336       -12.98791         2.47598
|100>    H       -3.90902        16.31284        -2.88116
|101>    H       -4.28227        12.44232        -6.00510
|102>    H       -6.60835        12.99589        -6.40652
|103>    H       -8.57019        14.42656        -5.99619
|104>    H       -8.40897        16.34623        -4.46134
|105>    H       -6.28291        16.85092        -3.32432
|106>    H        0.69103        13.77473        -2.40434
|107>    H        2.79787        12.52276        -2.72180
|108>    H        3.91080        10.32338        -2.79276
|109>    H       -0.99805        10.68023        -3.46006
|110>    H       -1.80324         8.36670        -2.62633
|111>    H       -0.54041         7.69037        -1.59111
|112>    H       -1.36402         6.66301        -2.77012
|113>    H       -1.39361         8.60515        -5.12060
|114>    H       -0.81988         6.94218        -5.28976
|115>    H        0.21224         8.28737        -5.78274
|116>    H        0.45699         5.17400        -3.82751
|117>    H        4.67941         5.35563        -3.16473
|118>    H        4.57371         7.80617        -2.96065
|119>    H        4.74106        -0.96302        -3.20046
|120>    H        4.67960        -3.41790        -3.06463
|121>    H        0.55465        -0.85417        -4.07814
|122>    H       -1.27924        -2.41232        -3.19942
|123>    H       -0.52492        -3.48623        -2.01538
|124>    H       -1.70135        -4.12642        -3.16824
|125>    H       -0.62150        -2.60006        -5.67374
|126>    H       -1.08153        -4.30717        -5.63560
|127>    H        0.53623        -3.83658        -6.16762
|128>    H       -0.77480        -6.41156        -4.00760
|129>    H        3.00071        -8.16762        -2.99650
|130>    H        4.06630        -5.95409        -3.00698
|131>    H       -0.44498        -8.79959        -4.13430
|132>    H        2.03838       -10.69523         1.25617
|133>    H       -1.04349       -13.52080        -1.45996
|134>    H       -1.13791       -15.14229         0.33382
|135>    H       -0.47541       -15.88372         2.58685
|136>    H        1.04813       -14.50943         3.94934
|137>    H        1.92197       -12.38089         3.06880
|138> *
|139>
|140>                          ****END OF INPUT****

CARTESIAN COORDINATES (ANGSTROEM)
---------------------------------
  C     -1.693290   12.925920   -4.771010
  C     -1.253660   12.125470   -5.791020
  C     -2.083610   11.655290   -6.828610
  N     -2.727720   11.224370   -7.675470
  C      0.091730   11.737100   -5.963720
  N      1.176230   11.439460   -6.192070
  C     -3.003110   13.564080   -4.699770
  C     -2.921580   14.667550   -3.800380
  C     -3.993820   15.477550   -3.560310
  C     -5.219870   15.209300   -4.209550
  C     -5.312110   14.098620   -5.097470
  C     -4.183070   13.281560   -5.334240
  C     -6.543500   13.837250   -5.732230
  C     -7.631840   14.634280   -5.504120
  C     -7.539940   15.728140   -4.630440
  C     -6.359730   16.009880   -3.997850
  C     -1.566860   14.726510   -3.221710
  O     -1.112020   15.555630   -2.467700
  C     -0.879710   13.495720   -3.711370
  C      0.234930   13.057190   -3.080110
  C      0.841810   11.752730   -3.126850
  C      2.218960   11.628730   -2.900810
  C      2.845370   10.400510   -2.946900
  C      2.080920    9.268530   -3.193090
  C      0.691070    9.375480   -3.383050
  C      0.073780   10.598740   -3.349440
  C      0.078050    8.018580   -3.639470
  C     -0.975880    7.661920   -2.587940
  C     -0.521180    7.959180   -5.049560
  C      1.289080    7.120140   -3.536820
  C      1.348820    5.753610   -3.653990
  C      2.582950    5.106630   -3.516930
  C      3.732510    5.862210   -3.261170
  C      3.676070    7.236950   -3.148860
  C      2.448830    7.871260   -3.283210
  C      2.664940    3.654380   -3.618320
  C      1.898460    2.914900   -4.532920
  C      1.924730    1.473940   -4.572910
  N      1.188500    0.827090   -5.511720
  C      0.468820    1.508360   -6.333390
  C      0.432840    2.930850   -6.284820
  N      1.126820    3.588780   -5.423260
  F     -0.317960    3.623980   -7.140730
  F     -0.239000    0.837360   -7.242900
  C      2.707120    0.711370   -3.689180
  C      3.521690    1.450870   -2.813010
  C      3.503530    2.898770   -2.781360
  N      4.323710    3.379260   -1.838650
  S      5.031650    2.158370   -1.087150
  N      4.353760    0.953150   -1.889750
  C      2.659380   -0.744970   -3.651050
  C      3.811830   -1.485310   -3.361210
  C      3.781030   -2.863380   -3.289100
  C      2.578500   -3.520990   -3.509680
  C      1.419300   -2.787600   -3.813200
  C      1.451190   -1.416920   -3.877380
  C      0.240440   -3.708700   -4.027520
  C     -0.890080   -3.414420   -3.037800
  C     -0.266330   -3.607020   -5.470320
  C      0.865200   -5.059790   -3.763390
  C      0.275420   -6.297040   -3.780250
  C      1.036660   -7.431110   -3.445920
  C      2.405960   -7.289250   -3.184920
  C      3.009410   -6.048390   -3.203880
  C      2.235570   -4.926910   -3.469530
  C      0.370280   -8.706560   -3.424970
  C      0.591790   -9.750880   -2.585300
  C     -0.098730  -11.031600   -2.644820
  C     -0.768510  -11.540710   -3.725420
  C     -1.399670  -12.802240   -3.739230
  N     -1.936150  -13.814730   -3.809950
  C     -0.895800  -10.901200   -4.976860
  N     -1.029330  -10.455520   -6.026630
  C      0.116010  -11.716520   -1.377860
  C      0.989390  -10.925500   -0.579690
  C      1.359460   -9.697980   -1.308520
  O      2.084870   -8.817640   -0.901670
  C      1.373820  -11.313730    0.671200
  C      0.891290  -12.534950    1.192100
  C      0.010710  -13.329480    0.402480
  C     -0.368970  -12.901700   -0.889990
  C     -0.470860  -14.542670    0.935690
  C     -0.100860  -14.953220    2.187250
  C      0.767110  -14.170530    2.963350
  C      1.253360  -12.987910    2.475980
  H     -3.909020   16.312840   -2.881160
  H     -4.282270   12.442320   -6.005100
  H     -6.608350   12.995890   -6.406520
  H     -8.570190   14.426560   -5.996190
  H     -8.408970   16.346230   -4.461340
  H     -6.282910   16.850920   -3.324320
  H      0.691030   13.774730   -2.404340
  H      2.797870   12.522760   -2.721800
  H      3.910800   10.323380   -2.792760
  H     -0.998050   10.680230   -3.460060
  H     -1.803240    8.366700   -2.626330
  H     -0.540410    7.690370   -1.591110
  H     -1.364020    6.663010   -2.770120
  H     -1.393610    8.605150   -5.120600
  H     -0.819880    6.942180   -5.289760
  H      0.212240    8.287370   -5.782740
  H      0.456990    5.174000   -3.827510
  H      4.679410    5.355630   -3.164730
  H      4.573710    7.806170   -2.960650
  H      4.741060   -0.963020   -3.200460
  H      4.679600   -3.417900   -3.064630
  H      0.554650   -0.854170   -4.078140
  H     -1.279240   -2.412320   -3.199420
  H     -0.524920   -3.486230   -2.015380
  H     -1.701350   -4.126420   -3.168240
  H     -0.621500   -2.600060   -5.673740
  H     -1.081530   -4.307170   -5.635600
  H      0.536230   -3.836580   -6.167620
  H     -0.774800   -6.411560   -4.007600
  H      3.000710   -8.167620   -2.996500
  H      4.066300   -5.954090   -3.006980
  H     -0.444980   -8.799590   -4.134300
  H      2.038380  -10.695230    1.256170
  H     -1.043490  -13.520800   -1.459960
  H     -1.137910  -15.142290    0.333820
  H     -0.475410  -15.883720    2.586850
  H      1.048130  -14.509430    3.949340
  H      1.921970  -12.380890    3.068800

 Total Charge           Charge          ....    0
 Multiplicity           Mult            ....    1
 Number of Electrons    NEL             ....  576
 Basis Dimension        Dim             .... 1384

ORBITAL ENERGIES
----------------

  NO   OCC          E(Eh)            E(eV)
   0   2.0000     -89.037866     -2422.8435
   1   2.0000     -24.809641      -675.1047
   2   2.0000     -24.809060      -675.0888
   3   2.0000     -19.211527      -522.7722
   4   2.0000     -19.210562      -522.7460
   5   2.0000     -14.447376      -393.1331
   6   2.0000     -14.447077      -393.1249
   7   2.0000     -14.444077      -393.0433
   8   2.0000     -14.443981      -393.0407
   9   2.0000     -14.413528      -392.2120
  10   2.0000     -14.411556      -392.1584
  11   2.0000     -14.411220      -392.1492
  12   2.0000     -14.408762      -392.0823
  13   2.0000     -10.424855      -283.6747
  14   2.0000     -10.424515      -283.6655
  15   2.0000     -10.364122      -282.0221
  16   2.0000     -10.361953      -281.9631
  17   2.0000     -10.339501      -281.3521
  18   2.0000     -10.339042      -281.3396
  19   2.0000     -10.338654      -281.3291
  20   2.0000     -10.338223      -281.3173
  21   2.0000     -10.338201      -281.3167
  22   2.0000     -10.336432      -281.2686
  23   2.0000     -10.332887      -281.1721
  24   2.0000     -10.332536      -281.1626
  25   2.0000     -10.316074      -280.7146
  26   2.0000     -10.314475      -280.6711
  27   2.0000     -10.314109      -280.6612
  28   2.0000     -10.312658      -280.6217
  29   2.0000     -10.310496      -280.5629
  30   2.0000     -10.310470      -280.5621
  31   2.0000     -10.305090      -280.4157
  32   2.0000     -10.304570      -280.4016
  33   2.0000     -10.301682      -280.3230
  34   2.0000     -10.299777      -280.2712
  35   2.0000     -10.296471      -280.1812
  36   2.0000     -10.296110      -280.1714
  37   2.0000     -10.295713      -280.1606
  38   2.0000     -10.295432      -280.1530
  39   2.0000     -10.295250      -280.1480
  40   2.0000     -10.295120      -280.1444
  41   2.0000     -10.294427      -280.1256
  42   2.0000     -10.294301      -280.1222
  43   2.0000     -10.293920      -280.1118
  44   2.0000     -10.292036      -280.0605
  45   2.0000     -10.287253      -279.9304
  46   2.0000     -10.286098      -279.8990
  47   2.0000     -10.285555      -279.8842
  48   2.0000     -10.285340      -279.8783
  49   2.0000     -10.285045      -279.8703
  50   2.0000     -10.284918      -279.8668
  51   2.0000     -10.284695      -279.8608
  52   2.0000     -10.284479      -279.8549
  53   2.0000     -10.284252      -279.8487
  54   2.0000     -10.284225      -279.8480
  55   2.0000     -10.284172      -279.8465
  56   2.0000     -10.284037      -279.8429
  57   2.0000     -10.283684      -279.8333
  58   2.0000     -10.283259      -279.8217
  59   2.0000     -10.283001      -279.8147
  60   2.0000     -10.282403      -279.7984
  61   2.0000     -10.279393      -279.7165
  62   2.0000     -10.279121      -279.7091
  63   2.0000     -10.279022      -279.7064
  64   2.0000     -10.278746      -279.6989
  65   2.0000     -10.278201      -279.6841
  66   2.0000     -10.276000      -279.6242
  67   2.0000     -10.275314      -279.6055
  68   2.0000     -10.273028      -279.5433
  69   2.0000     -10.272408      -279.5264
  70   2.0000     -10.272071      -279.5173
  71   2.0000     -10.271786      -279.5095
  72   2.0000     -10.270980      -279.4876
  73   2.0000     -10.270368      -279.4709
  74   2.0000     -10.269902      -279.4582
  75   2.0000     -10.269117      -279.4369
  76   2.0000     -10.268944      -279.4322
  77   2.0000     -10.268429      -279.4182
  78   2.0000     -10.268388      -279.4170
  79   2.0000     -10.267294      -279.3873
  80   2.0000     -10.266791      -279.3736
  81   2.0000     -10.260547      -279.2037
  82   2.0000     -10.260139      -279.1926
  83   2.0000     -10.257351      -279.1167
  84   2.0000     -10.254748      -279.0459
  85   2.0000      -8.129275      -221.2088
  86   2.0000      -6.100219      -165.9954
  87   2.0000      -6.092454      -165.7841
  88   2.0000      -6.092329      -165.7807
  89   2.0000      -1.336671       -36.3727
  90   2.0000      -1.322699       -35.9925
  91   2.0000      -1.133947       -30.8563
  92   2.0000      -1.127245       -30.6739
  93   2.0000      -1.125678       -30.6313
  94   2.0000      -1.106577       -30.1115
  95   2.0000      -1.032231       -28.0884
  96   2.0000      -1.014969       -27.6187
  97   2.0000      -1.014412       -27.6035
  98   2.0000      -0.995499       -27.0889
  99   2.0000      -0.995179       -27.0802
 100   2.0000      -0.991696       -26.9854
 101   2.0000      -0.990571       -26.9548
 102   2.0000      -0.989889       -26.9362
 103   2.0000      -0.988335       -26.8940
 104   2.0000      -0.985648       -26.8208
 105   2.0000      -0.971669       -26.4405
 106   2.0000      -0.969336       -26.3770
 107   2.0000      -0.968717       -26.3601
 108   2.0000      -0.948963       -25.8226
 109   2.0000      -0.944785       -25.7089
 110   2.0000      -0.924831       -25.1659
 111   2.0000      -0.921772       -25.0827
 112   2.0000      -0.916832       -24.9483
 113   2.0000      -0.911658       -24.8075
 114   2.0000      -0.895290       -24.3621
 115   2.0000      -0.894550       -24.3419
 116   2.0000      -0.885908       -24.1068
 117   2.0000      -0.880495       -23.9595
 118   2.0000      -0.879432       -23.9306
 119   2.0000      -0.877888       -23.8886
 120   2.0000      -0.876883       -23.8612
 121   2.0000      -0.871879       -23.7250
 122   2.0000      -0.855368       -23.2757
 123   2.0000      -0.842712       -22.9314
 124   2.0000      -0.834811       -22.7164
 125   2.0000      -0.834344       -22.7036
 126   2.0000      -0.826617       -22.4934
 127   2.0000      -0.825987       -22.4763
 128   2.0000      -0.821186       -22.3456
 129   2.0000      -0.820572       -22.3289
 130   2.0000      -0.818599       -22.2752
 131   2.0000      -0.806095       -21.9350
 132   2.0000      -0.804378       -21.8883
 133   2.0000      -0.783000       -21.3065
 134   2.0000      -0.776382       -21.1264
 135   2.0000      -0.771102       -20.9828
 136   2.0000      -0.769992       -20.9526
 137   2.0000      -0.760748       -20.7010
 138   2.0000      -0.758137       -20.6299
 139   2.0000      -0.756526       -20.5861
 140   2.0000      -0.748221       -20.3601
 141   2.0000      -0.737549       -20.0697
 142   2.0000      -0.731671       -19.9098
 143   2.0000      -0.726013       -19.7558
 144   2.0000      -0.718743       -19.5580
 145   2.0000      -0.707436       -19.2503
 146   2.0000      -0.701656       -19.0930
 147   2.0000      -0.701357       -19.0849
 148   2.0000      -0.698871       -19.0173
 149   2.0000      -0.694545       -18.8995
 150   2.0000      -0.687621       -18.7111
 151   2.0000      -0.679880       -18.5005
 152   2.0000      -0.679309       -18.4849
 153   2.0000      -0.674458       -18.3529
 154   2.0000      -0.672173       -18.2907
 155   2.0000      -0.670689       -18.2504
 156   2.0000      -0.666476       -18.1357
 157   2.0000      -0.665325       -18.1044
 158   2.0000      -0.661241       -17.9933
 159   2.0000      -0.655733       -17.8434
 160   2.0000      -0.646731       -17.5985
 161   2.0000      -0.643000       -17.4969
 162   2.0000      -0.636789       -17.3279
 163   2.0000      -0.631069       -17.1723
 164   2.0000      -0.628552       -17.1038
 165   2.0000      -0.624824       -17.0023
 166   2.0000      -0.612745       -16.6736
 167   2.0000      -0.610379       -16.6093
 168   2.0000      -0.606930       -16.5154
 169   2.0000      -0.605554       -16.4780
 170   2.0000      -0.603986       -16.4353
 171   2.0000      -0.597672       -16.2635
 172   2.0000      -0.595195       -16.1961
 173   2.0000      -0.594584       -16.1795
 174   2.0000      -0.591846       -16.1050
 175   2.0000      -0.588573       -16.0159
 176   2.0000      -0.570901       -15.5350
 177   2.0000      -0.568664       -15.4741
 178   2.0000      -0.567501       -15.4425
 179   2.0000      -0.564965       -15.3735
 180   2.0000      -0.562019       -15.2933
 181   2.0000      -0.555730       -15.1222
 182   2.0000      -0.548157       -14.9161
 183   2.0000      -0.546269       -14.8647
 184   2.0000      -0.545413       -14.8414
 185   2.0000      -0.544501       -14.8166
 186   2.0000      -0.543832       -14.7984
 187   2.0000      -0.542786       -14.7700
 188   2.0000      -0.538163       -14.6442
 189   2.0000      -0.536292       -14.5933
 190   2.0000      -0.534825       -14.5533
 191   2.0000      -0.530994       -14.4491
 192   2.0000      -0.528692       -14.3864
 193   2.0000      -0.528088       -14.3700
 194   2.0000      -0.526019       -14.3137
 195   2.0000      -0.520974       -14.1764
 196   2.0000      -0.520339       -14.1591
 197   2.0000      -0.519631       -14.1399
 198   2.0000      -0.518948       -14.1213
 199   2.0000      -0.517415       -14.0796
 200   2.0000      -0.517148       -14.0723
 201   2.0000      -0.514920       -14.0117
 202   2.0000      -0.514217       -13.9925
 203   2.0000      -0.512150       -13.9363
 204   2.0000      -0.511528       -13.9194
 205   2.0000      -0.510611       -13.8944
 206   2.0000      -0.510068       -13.8797
 207   2.0000      -0.509664       -13.8687
 208   2.0000      -0.508741       -13.8435
 209   2.0000      -0.506622       -13.7859
 210   2.0000      -0.503110       -13.6903
 211   2.0000      -0.501152       -13.6370
 212   2.0000      -0.497943       -13.5497
 213   2.0000      -0.496473       -13.5097
 214   2.0000      -0.494335       -13.4515
 215   2.0000      -0.494021       -13.4430
 216   2.0000      -0.490272       -13.3410
 217   2.0000      -0.486257       -13.2317
 218   2.0000      -0.483779       -13.1643
 219   2.0000      -0.480996       -13.0886
 220   2.0000      -0.477333       -12.9889
 221   2.0000      -0.471243       -12.8232
 222   2.0000      -0.470700       -12.8084
 223   2.0000      -0.468973       -12.7614
 224   2.0000      -0.466805       -12.7024
 225   2.0000      -0.463213       -12.6047
 226   2.0000      -0.461754       -12.5650
 227   2.0000      -0.461374       -12.5546
 228   2.0000      -0.460249       -12.5240
 229   2.0000      -0.458530       -12.4772
 230   2.0000      -0.457462       -12.4482
 231   2.0000      -0.452845       -12.3226
 232   2.0000      -0.447036       -12.1645
 233   2.0000      -0.445261       -12.1162
 234   2.0000      -0.444802       -12.1037
 235   2.0000      -0.441091       -12.0027
 236   2.0000      -0.440177       -11.9778
 237   2.0000      -0.439496       -11.9593
 238   2.0000      -0.437770       -11.9123
 239   2.0000      -0.436574       -11.8798
 240   2.0000      -0.435764       -11.8577
 241   2.0000      -0.432339       -11.7645
 242   2.0000      -0.431436       -11.7400
 243   2.0000      -0.430302       -11.7091
 244   2.0000      -0.430142       -11.7048
 245   2.0000      -0.429170       -11.6783
 246   2.0000      -0.428063       -11.6482
 247   2.0000      -0.427055       -11.6208
 248   2.0000      -0.423621       -11.5273
 249   2.0000      -0.422544       -11.4980
 250   2.0000      -0.420886       -11.4529
 251   2.0000      -0.417824       -11.3696
 252   2.0000      -0.415982       -11.3194
 253   2.0000      -0.414591       -11.2816
 254   2.0000      -0.413638       -11.2557
 255   2.0000      -0.409106       -11.1323
 256   2.0000      -0.408779       -11.1234
 257   2.0000      -0.408356       -11.1119
 258   2.0000      -0.405681       -11.0391
 259   2.0000      -0.404479       -11.0064
 260   2.0000      -0.399109       -10.8603
 261   2.0000      -0.396416       -10.7870
 262   2.0000      -0.394862       -10.7447
 263   2.0000      -0.393822       -10.7164
 264   2.0000      -0.390908       -10.6372
 265   2.0000      -0.388642       -10.5755
 266   2.0000      -0.377411       -10.2699
 267   2.0000      -0.376343       -10.2408
 268   2.0000      -0.372666       -10.1408
 269   2.0000      -0.366275        -9.9669
 270   2.0000      -0.363863        -9.9012
 271   2.0000      -0.361154        -9.8275
 272   2.0000      -0.340051        -9.2533
 273   2.0000      -0.337361        -9.1801
 274   2.0000      -0.335757        -9.1364
 275   2.0000      -0.331015        -9.0074
 276   2.0000      -0.326576        -8.8866
 277   2.0000      -0.321999        -8.7620
 278   2.0000      -0.318385        -8.6637
 279   2.0000      -0.314329        -8.5533
 280   2.0000      -0.313306        -8.5255
 281   2.0000      -0.312072        -8.4919
 282   2.0000      -0.311301        -8.4709
 283   2.0000      -0.298011        -8.1093
 284   2.0000      -0.293050        -7.9743
 285   2.0000      -0.289522        -7.8783
 286   2.0000      -0.273289        -7.4366
 287   2.0000      -0.251806        -6.8520
 288   0.0000      -0.099496        -2.7074
 289   0.0000      -0.085719        -2.3325
 290   0.0000      -0.083723        -2.2782
 291   0.0000      -0.053219        -1.4482
 292   0.0000      -0.051373        -1.3979

MULLIKEN ATOMIC CHARGES
-----------------------
   0 C :    0.260866
   1 C :   -0.348406
   2 C :   -0.180826
   3 N :    0.153481
   4 C :   -0.185913
   5 N :    0.178867
   6 C :    0.038104
   7 C :    0.016711
   8 C :   -0.086946
   9 C :    0.098536
  10 C :    0.097171
  11 C :   -0.087798
  12 C :   -0.020828
  13 C :    0.037729
  14 C :    0.034869
  15 C :   -0.018329
  16 C :    0.137666
  17 O :   -0.144323
  18 C :   -0.119076
  19 C :    0.031234
  20 C :    0.065367
  21 C :    0.017685
  22 C :   -0.044166
  23 C :    0.118332
  24 C :    0.025115
  25 C :   -0.075236
  26 C :   -0.150713
  27 C :    0.108385
  28 C :    0.107548
  29 C :    0.015288
  30 C :   -0.047424
  31 C :    0.005184
  32 C :    0.029465
  33 C :   -0.056170
  34 C :    0.102531
  35 C :    0.094888
  36 C :   -0.066984
  37 C :   -0.068774
  38 N :    0.006240
  39 C :    0.130022
  40 C :    0.129419
  41 N :    0.011388
  42 F :   -0.142550
  43 F :   -0.144507
  44 C :    0.101688
  45 C :   -0.008904
  46 C :   -0.009951
  47 N :   -0.278803
  48 S :    0.534205
  49 N :   -0.283138
  50 C :    0.007489
  51 C :    0.025527
  52 C :   -0.056548
  53 C :    0.104428
  54 C :    0.012282
  55 C :   -0.049119
  56 C :   -0.147245
  57 C :    0.105338
  58 C :    0.112013
  59 C :    0.029541
  60 C :   -0.090175
  61 C :    0.071997
  62 C :    0.075398
  63 C :   -0.063905
  64 C :    0.109422
  65 C :   -0.037173
  66 C :   -0.079947
  67 C :    0.299998
  68 C :   -0.344687
  69 C :   -0.182468
  70 N :    0.147710
  71 C :   -0.204561
  72 N :    0.160118
  73 C :    0.053192
  74 C :   -0.008517
  75 C :    0.145758
  76 O :   -0.141767
  77 C :   -0.083385
  78 C :    0.101028
  79 C :    0.098248
  80 C :   -0.087642
  81 C :   -0.022360
  82 C :    0.037690
  83 C :    0.037788
  84 C :   -0.020227
  85 H :   -0.011547
  86 H :   -0.007114
  87 H :   -0.010046
  88 H :   -0.005725
  89 H :   -0.005301
  90 H :   -0.016799
  91 H :    0.022825
  92 H :   -0.019925
  93 H :   -0.028340
  94 H :   -0.020295
  95 H :    0.006498
  96 H :    0.017808
  97 H :    0.006754
  98 H :    0.005903
  99 H :    0.012578
 100 H :    0.032209
 101 H :   -0.036869
 102 H :   -0.021703
 103 H :   -0.034775
 104 H :   -0.020168
 105 H :   -0.034280
 106 H :   -0.036253
 107 H :    0.006280
 108 H :    0.020045
 109 H :    0.007756
 110 H :    0.013262
 111 H :    0.009169
 112 H :    0.020052
 113 H :   -0.032335
 114 H :   -0.017041
 115 H :   -0.029158
 116 H :    0.032766
 117 H :   -0.014007
 118 H :   -0.007752
 119 H :   -0.008439
 120 H :   -0.005855
 121 H :   -0.006207
 122 H :   -0.017427
Sum of atomic charges:   -0.0000000

LOEWDIN ATOMIC CHARGES
----------------------
   0 C :    0.067498
   1 C :   -0.137213
   2 C :   -0.019141
   3 N :   -0.054125
   4 C :   -0.018859
   5 N :   -0.041413
   6 C :   -0.023527
   7 C :   -0.056649
   8 C :    0.031712
   9 C :   -0.009048
  10 C :   -0.005793
  11 C :    0.014762
  12 C :   -0.006839
  13 C :   -0.013494
  14 C :   -0.013712
  15 C :   -0.009463
  16 C :    0.084084
  17 O :   -0.143782
  18 C :   -0.093452
  19 C :    0.084330
  20 C :   -0.043015
  21 C :    0.006830
  22 C :   -0.013139
  23 C :    0.006108
  24 C :    0.007543
  25 C :   -0.002133
  26 C :   -0.037917
  27 C :   -0.026926
  28 C :   -0.024798
  29 C :    0.000999
  30 C :   -0.000264
  31 C :   -0.017256
  32 C :   -0.000180
  33 C :   -0.019228
  34 C :   -0.013105
  35 C :   -0.014056
  36 C :   -0.010765
  37 C :   -0.010464
  38 N :   -0.032684
  39 C :    0.052789
  40 C :    0.052730
  41 N :   -0.031759
  42 F :   -0.032854
  43 F :   -0.034446
  44 C :   -0.014648
  45 C :   -0.042745
  46 C :   -0.043580
  47 N :   -0.284620
  48 S :    0.672694
  49 N :   -0.284904
  50 C :   -0.017681
  51 C :   -0.000637
  52 C :   -0.019592
  53 C :   -0.014258
  54 C :    0.000012
  55 C :   -0.000762
  56 C :   -0.038268
  57 C :   -0.026818
  58 C :   -0.024602
  59 C :   -0.002273
  60 C :   -0.000125
  61 C :   -0.042549
  62 C :    0.026339
  63 C :   -0.020998
  64 C :    0.004918
  65 C :    0.084720
  66 C :   -0.095228
  67 C :    0.076773
  68 C :   -0.140009
  69 C :   -0.017011
  70 N :   -0.055268
  71 C :   -0.025407
  72 N :   -0.051250
  73 C :   -0.026681
  74 C :   -0.054809
  75 C :    0.082185
  76 O :   -0.134496
  77 C :    0.030596
  78 C :   -0.008242
  79 C :   -0.006612
  80 C :    0.018868
  81 C :   -0.005710
  82 C :   -0.014095
  83 C :   -0.012869
  84 C :   -0.010390
  85 H :    0.039242
  86 H :    0.038200
  87 H :    0.034249
  88 H :    0.032868
  89 H :    0.032624
  90 H :    0.031867
  91 H :    0.046315
  92 H :    0.031052
  93 H :    0.029853
  94 H :    0.026553
  95 H :    0.021744
  96 H :    0.028143
  97 H :    0.022802
  98 H :    0.020742
  99 H :    0.025372
 100 H :    0.033840
 101 H :    0.022621
 102 H :    0.026870
 103 H :    0.027261
 104 H :    0.026733
 105 H :    0.027481
 106 H :    0.022402
 107 H :    0.022239
 108 H :    0.028967
 109 H :    0.022259
 110 H :    0.024973
 111 H :    0.022457
 112 H :    0.030062
 113 H :    0.027571
 114 H :    0.030926
 115 H :    0.029637
 116 H :    0.045619
 117 H :    0.038303
 118 H :    0.038811
 119 H :    0.034691
 120 H :    0.032822
 121 H :    0.032387
 122 H :    0.031591

  Mayer bond orders larger than 0.100000
B(  0-C ,  1-C ) :   1.6676 B(  0-C ,  6-C ) :   1.0036 B(  0-C , 18-C ) :   1.0152
B(  1-C ,  2-C ) :   1.1374 B(  1-C ,  4-C ) :   1.1574 B(  2-C ,  3-N ) :   2.9823
B(  4-C ,  5-N ) :   2.9933 B(  6-C ,  7-C ) :   1.2148 B(  6-C , 11-C ) :   1.4528
B(  7-C ,  8-C ) :   1.4723 B(  7-C , 16-C ) :   0.9185 B(  8-C ,  9-C ) :   1.1835
B(  8-C , 85-H ) :   1.0165 B(  9-C , 10-C ) :   1.2571 B(  9-C , 15-C ) :   1.2438
B( 10-C , 11-C ) :   1.2048 B( 10-C , 12-C ) :   1.2381 B( 11-C , 86-H ) :   0.9951
B( 12-C , 13-C ) :   1.4918 B( 12-C , 87-H ) :   0.9979 B( 13-C , 14-C ) :   1.2591
B( 13-C , 88-H ) :   0.9882 B( 14-C , 15-C ) :   1.4906 B( 14-C , 89-H ) :   0.9884
B( 15-C , 90-H ) :   0.9980 B( 16-C , 17-O ) :   2.2710 B( 16-C , 18-C ) :   0.9334
B( 18-C , 19-C ) :   1.6999 B( 19-C , 20-C ) :   1.0432 B( 19-C , 91-H ) :   0.9460
B( 20-C , 21-C ) :   1.3384 B( 20-C , 25-C ) :   1.2830 B( 21-C , 22-C ) :   1.3787
B( 21-C , 92-H ) :   0.9940 B( 22-C , 23-C ) :   1.3359 B( 22-C , 93-H ) :   0.9908
B( 23-C , 24-C ) :   1.3799 B( 23-C , 34-C ) :   0.9917 B( 24-C , 25-C ) :   1.4294
B( 24-C , 26-C ) :   0.9349 B( 25-C , 94-H ) :   0.9948 B( 26-C , 27-C ) :   1.0352
B( 26-C , 28-C ) :   1.0292 B( 26-C , 29-C ) :   0.9306 B( 27-C , 95-H ) :   0.9627
B( 27-C , 96-H ) :   0.9649 B( 27-C , 97-H ) :   0.9627 B( 28-C , 98-H ) :   0.9627
B( 28-C , 99-H ) :   0.9610 B( 28-C ,100-H ) :   0.9618 B( 29-C , 30-C ) :   1.4085
B( 29-C , 34-C ) :   1.3818 B( 30-C , 31-C ) :   1.3254 B( 30-C ,101-H ) :   0.9903
B( 31-C , 32-C ) :   1.3683 B( 31-C , 35-C ) :   0.9864 B( 32-C , 33-C ) :   1.3883
B( 32-C ,102-H ) :   0.9819 B( 33-C , 34-C ) :   1.3324 B( 33-C ,103-H ) :   0.9934
B( 35-C , 36-C ) :   1.3705 B( 35-C , 44-C ) :   0.1384 B( 35-C , 46-C ) :   1.2483
B( 36-C , 37-C ) :   1.0926 B( 36-C , 41-N ) :   1.3874 B( 37-C , 38-N ) :   1.3843
B( 37-C , 44-C ) :   1.3637 B( 38-N , 39-C ) :   1.7090 B( 39-C , 40-C ) :   1.0813
B( 39-C , 43-F ) :   1.1702 B( 40-C , 41-N ) :   1.7111 B( 40-C , 42-F ) :   1.1729
B( 44-C , 45-C ) :   1.2441 B( 44-C , 50-C ) :   0.9944 B( 45-C , 46-C ) :   1.1064
B( 45-C , 49-N ) :   1.4859 B( 46-C , 47-N ) :   1.4899 B( 47-N , 48-S ) :   1.2930
B( 47-N , 49-N ) :   0.1597 B( 48-S , 49-N ) :   1.2921 B( 50-C , 51-C ) :   1.3647
B( 50-C , 55-C ) :   1.3214 B( 51-C , 52-C ) :   1.3892 B( 51-C ,104-H ) :   0.9802
B( 52-C , 53-C ) :   1.3315 B( 52-C ,105-H ) :   0.9936 B( 53-C , 54-C ) :   1.3777
B( 53-C , 64-C ) :   0.9956 B( 54-C , 55-C ) :   1.4105 B( 54-C , 56-C ) :   0.9331
B( 55-C ,106-H ) :   0.9894 B( 56-C , 57-C ) :   1.0354 B( 56-C , 58-C ) :   1.0282
B( 56-C , 59-C ) :   0.9335 B( 57-C ,107-H ) :   0.9628 B( 57-C ,108-H ) :   0.9651
B( 57-C ,109-H ) :   0.9627 B( 58-C ,110-H ) :   0.9631 B( 58-C ,111-H ) :   0.9630
B( 58-C ,112-H ) :   0.9633 B( 59-C , 60-C ) :   1.4027 B( 59-C , 64-C ) :   1.3702
B( 60-C , 61-C ) :   1.2648 B( 60-C ,113-H ) :   1.0078 B( 61-C , 62-C ) :   1.3518
B( 61-C , 65-C ) :   1.0810 B( 62-C , 63-C ) :   1.4027 B( 62-C ,114-H ) :   0.9769
B( 63-C , 64-C ) :   1.3295 B( 63-C ,115-H ) :   0.9942 B( 65-C , 66-C ) :   1.6339
B( 65-C ,116-H ) :   0.9528 B( 66-C , 67-C ) :   1.0484 B( 66-C , 75-C ) :   0.9304
B( 67-C , 68-C ) :   1.6467 B( 67-C , 73-C ) :   0.9933 B( 68-C , 69-C ) :   1.1443
B( 68-C , 71-C ) :   1.1379 B( 69-C , 70-N ) :   2.9681 B( 71-C , 72-N ) :   2.9950
B( 73-C , 74-C ) :   1.2115 B( 73-C , 80-C ) :   1.4467 B( 74-C , 75-C ) :   0.9430
B( 74-C , 77-C ) :   1.4735 B( 75-C , 76-O ) :   2.2321 B( 77-C , 78-C ) :   1.1803
B( 77-C ,117-H ) :   1.0158 B( 78-C , 79-C ) :   1.2538 B( 78-C , 84-C ) :   1.2437
B( 79-C , 80-C ) :   1.2075 B( 79-C , 81-C ) :   1.2393 B( 80-C ,118-H ) :   0.9906
B( 81-C , 82-C ) :   1.4903 B( 81-C ,119-H ) :   0.9972 B( 82-C , 83-C ) :   1.2582
B( 82-C ,120-H ) :   0.9889 B( 83-C , 84-C ) :   1.4901 B( 83-C ,121-H ) :   0.9888
B( 84-C ,122-H ) :   0.9976

-----------------------------------------------------------------------------
         ABSORPTION SPECTRUM VIA TRANSITION ELECTRIC DIPOLE MOMENTS
-----------------------------------------------------------------------------
State   Energy  Wavelength   fosc         T2         TX        TY        TZ
        (cm-1)    (nm)                  (au**2)     (au)      (au)      (au)
-----------------------------------------------------------------------------
   0   16848.7    593.5   0.988568077  19.31590   0.25857  -4.38078   0.24038
   1   21947.3    455.6   0.277292375   4.15941  -1.65566   0.97731  -0.68049
   2   22781.8    438.9   0.672770669   9.72199  -0.73064  -2.96882   0.61178
   3   24110.6    414.8   0.066662544   0.91023  -0.43639  -0.82766  -0.18648
   4   27757.3    360.3   0.072982415   0.86560  -0.33900   0.83975  -0.21329
   5   27935.5    358.0   0.054464739   0.64185  -0.72441   0.00254   0.34216
   6   27982.1    357.4   0.006397640   0.07527   0.24223  -0.12637   0.02495
   7   28186.2    354.8   0.036474499   0.42602   0.56259   0.15619  -0.29175
   8   28332.9    352.9   0.044608297   0.51832  -0.09293   0.12529  -0.70284
   9   29168.8    342.8   0.017907223   0.20211   0.14617   0.42041   0.06326
  10   29422.5    339.9   0.120213278   1.34508  -0.39226   0.83533  -0.70245
  11   29539.9    338.5   0.045422319   0.50622  -0.14267  -0.38744  -0.57944
  12   29745.1    336.2   0.045284288   0.50120   0.05885   0.62966   0.31821
  13   30540.3    327.4   0.046291897   0.49901  -0.31208  -0.08630  -0.62783
  14   30997.2    322.6   0.086725158   0.92108  -0.30267   0.90852   0.06380
  15   31317.4    319.3   0.045033722   0.47340  -0.58662   0.35819  -0.03123
  16   31511.3    317.3   0.139997649   1.46261   0.79096  -0.85625  -0.32223
  17   31619.8    316.3   0.507449312   5.28334  -1.04875   1.98009  -0.51256
  18   31695.9    315.5   0.111602298   1.15917   0.75717   0.35965  -0.67566
  19   32523.2    307.5   0.335611384   3.39718  -1.23761  -0.18716  -1.35296
  20   33302.8    300.3   0.093741534   0.92667  -0.31427  -0.66474   0.62131
  21   33874.3    295.2   0.044740324   0.43481  -0.50062   0.40809   0.13288
  22   34153.7    292.8   0.002265106   0.02183  -0.03184  -0.14410   0.00744
  23   34373.5    290.9   0.161469910   1.54648   0.61039  -1.06971   0.17211
  24   34665.8    288.5   0.436788958   4.14807  -0.30797  -0.07647   2.01181
  25   34748.7    287.8   0.356970585   3.38197  -1.21620   1.16320  -0.74147
  26   34858.9    286.9   0.139628031   1.31867   0.44099   0.22702   1.03569
  27   35049.1    285.3   0.150668879   1.41521   0.75281  -0.31596  -0.86525
  28   35237.7    283.8   0.095495621   0.89218  -0.43829   0.24032  -0.80146
  29   35537.1    281.4   0.206859257   1.91632   0.55233  -1.23151   0.30764
  30   35736.6    279.8   0.240181705   2.21260  -1.12198   0.90502   0.36701
  31   35834.4    279.1   0.395803658   3.63626  -0.17934   1.88054   0.26017
  32   35995.7    277.8   0.283378771   2.59174   1.58315   0.21918   0.19323
  33   36309.8    275.4   0.072687112   0.65904  -0.21552  -0.27739   0.73187
  34   36406.7    274.7   0.034530913   0.31225   0.09074   0.53375  -0.13832
  35   36721.6    272.3   0.151965545   1.36238   0.05361  -0.86695   0.77968
  36   37244.3    268.5   0.035292595   0.31196   0.28169  -0.07016  -0.47717
  37   37413.5    267.3   0.026778904   0.23564  -0.28927   0.26198  -0.28866
  38   37919.5    263.7   0.066892346   0.58075   0.52189  -0.42574   0.35655
  39   38436.9    260.2   0.191532965   1.64048   0.06423   1.27278  -0.12802
  40   38592.8    259.1   0.029820888   0.25438  -0.39172   0.16502   0.27149
  41   39385.2    253.9   0.065035741   0.54362  -0.08356  -0.56266  -0.46910
  42   39731.5    251.7   0.027313302   0.22632  -0.19195   0.42465   0.09562
  43   39822.0    251.1   0.088644251   0.73283   0.62017   0.37091   0.45896
  44   40123.7    249.2   0.042909119   0.35207  -0.33462  -0.13176  -0.47195

FINAL SINGLE POINT ENERGY     -3948.268183690595

DIPOLE MOMENT
-------------
                                X             Y             Z
Electronic contribution:     22.90363      -0.53379     -18.41853
Nuclear contribution   :    -23.09127       1.32681      21.99006
                        -----------------------------------------
Total Dipole Moment    :     -0.18764       0.79302       3.57153
                        -----------------------------------------
Magnitude (a.u.)       :      3.66332
Magnitude (Debye)      :      9.31141

Rotational constants in cm-1:     0.001576     0.000156     0.000151
Rotational constants in MHz :    47.257692     4.684058     4.524214

                             ****ORCA TERMINATED NORMALLY****
TOTAL RUN TIME: 0 days 0 hours 14 minutes 12 seconds 197 msec
