                         Program Version 4.2.0 -  RELEASE  -
|  1> # ORCA input file
|  2> # SCF done       -197.514787022326          0.000459726928
|  3> ! CAM-B3LYP def2-SVP def2/J RIJCOSX Grid4 TightSCF
|  4> %maxcore 5000
|  5> %tddft
|  6>     Mode sTDDFT
|  7>     Ethresh 5.0
|  8>     maxcore 5000
|  9> end
| 10>
| 11> %pal
| 12>   nprocs 6
| 13>   end
| 14> * xyz 0 1
| 15>    C        0.43992         1.60365         3.42197
| 16>    C       -0.79068         1.51007         2.82351
| 17>    C       -1.26835         0.34373         2.19249
| 18>    N       -1.69607        -0.57315         1.65013
| 19>    C       -1.74777         2.54325         2.84471
| 20>    N       -2.56421         3.34999         2.86540
| 21>    C        1.34672         0.48348         3.65661
| 22>    C        2.24372         0.83982         4.70587
| 23>    C        3.18517        -0.03123         5.17248
| 24>    C        3.28386        -1.31537         4.59086
| 25>    C        2.40416        -1.67037         3.52755
| 26>    C        1.43121        -0.75079         3.07147
| 27>    C        2.52105        -2.95028         2.94886
| 28>    C        3.45808        -3.83975         3.39990
| 29>    C        4.32153        -3.49049         4.44883
| 30>    C        4.23600        -2.25529         5.03183
| 31>    C        1.97623         2.22639         5.12378
| 32>    O        2.49655         2.85401         6.01661
| 33>    C        0.95284         2.73505         4.16180
| 34>    C        0.76121         4.08051         4.07829
| 35>    C        0.18005         4.85930         3.05341
| 36>    C       -0.08037         4.54165         1.72853
| 37>    C       -0.60087         5.61991         1.02707
| 38>    C       -0.74426         6.78559         1.80326
| 39>    S       -0.20808         6.53518         3.41484
| 40>    C       -1.26885         7.84982         1.07267
| 41>    C       -1.53236         7.49340        -0.26125
| 42>    S       -1.12637         5.83568        -0.61805
| 43>    C       -2.03966         8.53521        -1.02392
| 44>    C       -2.15983         9.70454        -0.28592
| 45>    S       -1.64671         9.50748         1.37935
| 46>    C       -2.60309        10.96858        -0.75496
| 47>    C       -2.59901        12.09664         0.09598
| 48>    C       -2.96485        13.41058        -0.36167
| 49>    N       -2.91520        14.44160         0.48876
| 50>    C       -2.54404        14.25332         1.73088
| 51>    C       -2.18796        12.94240         2.18911
| 52>    N       -2.22437        11.92245         1.36774
| 53>    C       -1.79560        12.73680         3.53514
| 54>    N       -1.48120        12.60640         4.62848
| 55>    C       -2.50464        15.35744         2.61837
| 56>    N       -2.46516        16.22790         3.36129
| 57>    C       -3.37525        13.66482        -1.68948
| 58>    C       -3.43275        12.52984        -2.53210
| 59>    C       -3.04687        11.21027        -2.07645
| 60>    N       -3.16725        10.30459        -3.04768
| 61>    S       -3.70570        11.01741        -4.37882
| 62>    N       -3.81360        12.51255        -3.80989
| 63>    C       -3.67149        14.98557        -2.11758
| 64>    C       -4.11626        15.37862        -3.37195
| 65>    C       -4.26038        16.75593        -3.46104
| 66>    C       -3.91696        17.43333        -2.27791
| 67>    S       -3.44152        16.33972        -1.02745
| 68>    C       -4.04272        18.81416        -2.41133
| 69>    C       -4.49413        19.19397        -3.69185
| 70>    S       -4.75905        17.82829        -4.74172
| 71>    C       -4.61861        20.56475        -3.86430
| 72>    C       -4.26010        21.26427        -2.72144
| 73>    S       -3.75747        20.18294        -1.41721
| 74>    C       -4.17864        22.64325        -2.43733
| 75>    C       -4.61416        23.73522        -3.13433
| 76>    C       -4.40514        25.10267        -2.68131
| 77>    C       -3.45622        25.53101        -1.79057
| 78>    C       -3.28586        26.88003        -1.41392
| 79>    N       -3.09997        27.95812        -1.06618
| 80>    C       -2.48307        24.71342        -1.17673
| 81>    N       -1.64254        24.12181        -0.66461
| 82>    C       -5.31539        25.96356        -3.42414
| 83>    C       -5.96199        25.17743        -4.41894
| 84>    C       -5.50301        23.78072        -4.32349
| 85>    O       -5.81879        22.87610        -5.06825
| 86>    C       -6.86928        25.71517        -5.28578
| 87>    C       -7.18652        27.08833        -5.18560
| 88>    C       -6.55337        27.87887        -4.18326
| 89>    C       -5.61031        27.29573        -3.30616
| 90>    C       -6.88583        29.24526        -4.08538
| 91>    C       -7.79860        29.80634        -4.93647
| 92>    C       -8.41985        29.02779        -5.92437
| 93>    C       -8.11978        27.69812        -6.04682
| 94>    H        3.84814         0.25576         5.97506
| 95>    H        0.78266        -1.04307         2.26022
| 96>    H        1.85167        -3.21633         2.14398
| 97>    H        3.53854        -4.81833         2.95092
| 98>    H        5.05493        -4.20454         4.79235
| 99>    H        4.89821        -1.98026         5.83967
|100>    H        1.19124         4.64402         4.90187
|101>    H        0.14224         3.58817         1.28624
|102>    H       -2.30859         8.47535        -2.06149
|103>    H       -4.31238        14.67866        -4.16191
|104>    H       -4.95387        21.04631        -4.76413
|105>    H       -3.70808        22.84609        -1.48137
|106>    H       -7.34272        25.09926        -6.03600
|107>    H       -5.15172        27.91825        -2.55438
|108>    H       -6.40327        29.84066        -3.32426
|109>    H       -8.04702        30.85374        -4.85301
|110>    H       -9.13790        29.48673        -6.58741
|111>    H       -8.59539        27.09374        -6.80539
|112> *
|113>
|114>                          ****END OF INPUT****

CARTESIAN COORDINATES (ANGSTROEM)
---------------------------------
  C      0.439920    1.603650    3.421970
  C     -0.790680    1.510070    2.823510
  C     -1.268350    0.343730    2.192490
  N     -1.696070   -0.573150    1.650130
  C     -1.747770    2.543250    2.844710
  N     -2.564210    3.349990    2.865400
  C      1.346720    0.483480    3.656610
  C      2.243720    0.839820    4.705870
  C      3.185170   -0.031230    5.172480
  C      3.283860   -1.315370    4.590860
  C      2.404160   -1.670370    3.527550
  C      1.431210   -0.750790    3.071470
  C      2.521050   -2.950280    2.948860
  C      3.458080   -3.839750    3.399900
  C      4.321530   -3.490490    4.448830
  C      4.236000   -2.255290    5.031830
  C      1.976230    2.226390    5.123780
  O      2.496550    2.854010    6.016610
  C      0.952840    2.735050    4.161800
  C      0.761210    4.080510    4.078290
  C      0.180050    4.859300    3.053410
  C     -0.080370    4.541650    1.728530
  C     -0.600870    5.619910    1.027070
  C     -0.744260    6.785590    1.803260
  S     -0.208080    6.535180    3.414840
  C     -1.268850    7.849820    1.072670
  C     -1.532360    7.493400   -0.261250
  S     -1.126370    5.835680   -0.618050
  C     -2.039660    8.535210   -1.023920
  C     -2.159830    9.704540   -0.285920
  S     -1.646710    9.507480    1.379350
  C     -2.603090   10.968580   -0.754960
  C     -2.599010   12.096640    0.095980
  C     -2.964850   13.410580   -0.361670
  N     -2.915200   14.441600    0.488760
  C     -2.544040   14.253320    1.730880
  C     -2.187960   12.942400    2.189110
  N     -2.224370   11.922450    1.367740
  C     -1.795600   12.736800    3.535140
  N     -1.481200   12.606400    4.628480
  C     -2.504640   15.357440    2.618370
  N     -2.465160   16.227900    3.361290
  C     -3.375250   13.664820   -1.689480
  C     -3.432750   12.529840   -2.532100
  C     -3.046870   11.210270   -2.076450
  N     -3.167250   10.304590   -3.047680
  S     -3.705700   11.017410   -4.378820
  N     -3.813600   12.512550   -3.809890
  C     -3.671490   14.985570   -2.117580
  C     -4.116260   15.378620   -3.371950
  C     -4.260380   16.755930   -3.461040
  C     -3.916960   17.433330   -2.277910
  S     -3.441520   16.339720   -1.027450
  C     -4.042720   18.814160   -2.411330
  C     -4.494130   19.193970   -3.691850
  S     -4.759050   17.828290   -4.741720
  C     -4.618610   20.564750   -3.864300
  C     -4.260100   21.264270   -2.721440
  S     -3.757470   20.182940   -1.417210
  C     -4.178640   22.643250   -2.437330
  C     -4.614160   23.735220   -3.134330
  C     -4.405140   25.102670   -2.681310
  C     -3.456220   25.531010   -1.790570
  C     -3.285860   26.880030   -1.413920
  N     -3.099970   27.958120   -1.066180
  C     -2.483070   24.713420   -1.176730
  N     -1.642540   24.121810   -0.664610
  C     -5.315390   25.963560   -3.424140
  C     -5.961990   25.177430   -4.418940
  C     -5.503010   23.780720   -4.323490
  O     -5.818790   22.876100   -5.068250
  C     -6.869280   25.715170   -5.285780
  C     -7.186520   27.088330   -5.185600
  C     -6.553370   27.878870   -4.183260
  C     -5.610310   27.295730   -3.306160
  C     -6.885830   29.245260   -4.085380
  C     -7.798600   29.806340   -4.936470
  C     -8.419850   29.027790   -5.924370
  C     -8.119780   27.698120   -6.046820
  H      3.848140    0.255760    5.975060
  H      0.782660   -1.043070    2.260220
  H      1.851670   -3.216330    2.143980
  H      3.538540   -4.818330    2.950920
  H      5.054930   -4.204540    4.792350
  H      4.898210   -1.980260    5.839670
  H      1.191240    4.644020    4.901870
  H      0.142240    3.588170    1.286240
  H     -2.308590    8.475350   -2.061490
  H     -4.312380   14.678660   -4.161910
  H     -4.953870   21.046310   -4.764130
  H     -3.708080   22.846090   -1.481370
  H     -7.342720   25.099260   -6.036000
  H     -5.151720   27.918250   -2.554380
  H     -6.403270   29.840660   -3.324260
  H     -8.047020   30.853740   -4.853010
  H     -9.137900   29.486730   -6.587410
  H     -8.595390   27.093740   -6.805390

 Total Charge           Charge          ....    0
 Multiplicity           Mult            ....    1
 Number of Electrons    NEL             ....  576
 Basis Dimension        Dim             .... 1224

ORBITAL ENERGIES
----------------

  NO   OCC          E(Eh)            E(eV)
   0   2.0000     -89.059669     -2423.4368
   1   2.0000     -88.974956     -2421.1317
   2   2.0000     -88.972614     -2421.0679
   3   2.0000     -88.970690     -2421.0156
   4   2.0000     -88.970414     -2421.0080
   5   2.0000     -88.968968     -2420.9687
   6   2.0000     -88.967819     -2420.9374
   7   2.0000     -19.217837      -522.9439
   8   2.0000     -19.213093      -522.8148
   9   2.0000     -14.478048      -393.9677
  10   2.0000     -14.477698      -393.9582
  11   2.0000     -14.468958      -393.7204
  12   2.0000     -14.468542      -393.7090
  13   2.0000     -14.439010      -392.9054
  14   2.0000     -14.438917      -392.9029
  15   2.0000     -14.415829      -392.2747
  16   2.0000     -14.415013      -392.2524
  17   2.0000     -14.411798      -392.1650
  18   2.0000     -14.410857      -392.1394
  19   2.0000     -10.396390      -282.9001
  20   2.0000     -10.395958      -282.8884
  21   2.0000     -10.369098      -282.1575
  22   2.0000     -10.364255      -282.0257
  23   2.0000     -10.360248      -281.9167
  24   2.0000     -10.359972      -281.9092
  25   2.0000     -10.359028      -281.8835
  26   2.0000     -10.358800      -281.8773
  27   2.0000     -10.342970      -281.4465
  28   2.0000     -10.341917      -281.4179
  29   2.0000     -10.338372      -281.3214
  30   2.0000     -10.337316      -281.2927
  31   2.0000     -10.333278      -281.1828
  32   2.0000     -10.332142      -281.1519
  33   2.0000     -10.332065      -281.1498
  34   2.0000     -10.331872      -281.1445
  35   2.0000     -10.326966      -281.0110
  36   2.0000     -10.326636      -281.0021
  37   2.0000     -10.325040      -280.9586
  38   2.0000     -10.324565      -280.9457
  39   2.0000     -10.323472      -280.9160
  40   2.0000     -10.323472      -280.9159
  41   2.0000     -10.321989      -280.8756
  42   2.0000     -10.321069      -280.8506
  43   2.0000     -10.318548      -280.7820
  44   2.0000     -10.318533      -280.7816
  45   2.0000     -10.316233      -280.7190
  46   2.0000     -10.316053      -280.7141
  47   2.0000     -10.315907      -280.7101
  48   2.0000     -10.315785      -280.7068
  49   2.0000     -10.314697      -280.6772
  50   2.0000     -10.313988      -280.6579
  51   2.0000     -10.313907      -280.6557
  52   2.0000     -10.313083      -280.6333
  53   2.0000     -10.306906      -280.4652
  54   2.0000     -10.303368      -280.3689
  55   2.0000     -10.300374      -280.2874
  56   2.0000     -10.299052      -280.2514
  57   2.0000     -10.298206      -280.2284
  58   2.0000     -10.298022      -280.2234
  59   2.0000     -10.297701      -280.2147
  60   2.0000     -10.297310      -280.2041
  61   2.0000     -10.297229      -280.2019
  62   2.0000     -10.296732      -280.1883
  63   2.0000     -10.296714      -280.1878
  64   2.0000     -10.296568      -280.1839
  65   2.0000     -10.296131      -280.1720
  66   2.0000     -10.295807      -280.1631
  67   2.0000     -10.295118      -280.1444
  68   2.0000     -10.294549      -280.1289
  69   2.0000     -10.288753      -279.9712
  70   2.0000     -10.287083      -279.9257
  71   2.0000     -10.286320      -279.9050
  72   2.0000     -10.285977      -279.8957
  73   2.0000     -10.285715      -279.8885
  74   2.0000     -10.285334      -279.8782
  75   2.0000     -10.285284      -279.8768
  76   2.0000     -10.284771      -279.8628
  77   2.0000     -10.284429      -279.8535
  78   2.0000     -10.283887      -279.8388
  79   2.0000      -8.150927      -221.7980
  80   2.0000      -8.070212      -219.6016
  81   2.0000      -8.068011      -219.5417
  82   2.0000      -8.064186      -219.4376
  83   2.0000      -8.063858      -219.4287
  84   2.0000      -8.063685      -219.4240
  85   2.0000      -8.063135      -219.4091
  86   2.0000      -6.122032      -166.5890
  87   2.0000      -6.114113      -166.3735
  88   2.0000      -6.113770      -166.3641
  89   2.0000      -6.039668      -164.3477
  90   2.0000      -6.037415      -164.2864
  91   2.0000      -6.035582      -164.2365
  92   2.0000      -6.033948      -164.1921
  93   2.0000      -6.033757      -164.1869
  94   2.0000      -6.033578      -164.1820
  95   2.0000      -6.033398      -164.1771
  96   2.0000      -6.032886      -164.1632
  97   2.0000      -6.031914      -164.1367
  98   2.0000      -6.030097      -164.0873
  99   2.0000      -6.029689      -164.0762
 100   2.0000      -6.029037      -164.0585
 101   2.0000      -6.029036      -164.0584
 102   2.0000      -6.028855      -164.0535
 103   2.0000      -6.025399      -163.9594
 104   2.0000      -6.025212      -163.9543
 105   2.0000      -6.025064      -163.9503
 106   2.0000      -6.023997      -163.9213
 107   2.0000      -1.157231       -31.4899
 108   2.0000      -1.138038       -30.9676
 109   2.0000      -1.132508       -30.8171
 110   2.0000      -1.128706       -30.7136
 111   2.0000      -1.066307       -29.0157
 112   2.0000      -1.032415       -28.0934
 113   2.0000      -1.030690       -28.0465
 114   2.0000      -1.023997       -27.8644
 115   2.0000      -1.018286       -27.7090
 116   2.0000      -1.015435       -27.6314
 117   2.0000      -1.014670       -27.6106
 118   2.0000      -1.011177       -27.5155
 119   2.0000      -1.001200       -27.2440
 120   2.0000      -0.997979       -27.1564
 121   2.0000      -0.996145       -27.1065
 122   2.0000      -0.994268       -27.0554
 123   2.0000      -0.990259       -26.9463
 124   2.0000      -0.989107       -26.9150
 125   2.0000      -0.981028       -26.6951
 126   2.0000      -0.970853       -26.4182
 127   2.0000      -0.969408       -26.3789
 128   2.0000      -0.945076       -25.7168
 129   2.0000      -0.937364       -25.5070
 130   2.0000      -0.923183       -25.1211
 131   2.0000      -0.922405       -25.0999
 132   2.0000      -0.921615       -25.0784
 133   2.0000      -0.904080       -24.6013
 134   2.0000      -0.900854       -24.5135
 135   2.0000      -0.898230       -24.4421
 136   2.0000      -0.882144       -24.0044
 137   2.0000      -0.880980       -23.9727
 138   2.0000      -0.879768       -23.9397
 139   2.0000      -0.877679       -23.8829
 140   2.0000      -0.865560       -23.5531
 141   2.0000      -0.857374       -23.3303
 142   2.0000      -0.849229       -23.1087
 143   2.0000      -0.848011       -23.0756
 144   2.0000      -0.845834       -23.0163
 145   2.0000      -0.828116       -22.5342
 146   2.0000      -0.826576       -22.4923
 147   2.0000      -0.822086       -22.3701
 148   2.0000      -0.818999       -22.2861
 149   2.0000      -0.808903       -22.0114
 150   2.0000      -0.807884       -21.9836
 151   2.0000      -0.796170       -21.6649
 152   2.0000      -0.785704       -21.3801
 153   2.0000      -0.767187       -20.8762
 154   2.0000      -0.759697       -20.6724
 155   2.0000      -0.759098       -20.6561
 156   2.0000      -0.753215       -20.4960
 157   2.0000      -0.740013       -20.1368
 158   2.0000      -0.724257       -19.7080
 159   2.0000      -0.717607       -19.5271
 160   2.0000      -0.715346       -19.4655
 161   2.0000      -0.707850       -19.2616
 162   2.0000      -0.702590       -19.1184
 163   2.0000      -0.701708       -19.0944
 164   2.0000      -0.697383       -18.9768
 165   2.0000      -0.694300       -18.8929
 166   2.0000      -0.681488       -18.5442
 167   2.0000      -0.676411       -18.4061
 168   2.0000      -0.674875       -18.3643
 169   2.0000      -0.671272       -18.2663
 170   2.0000      -0.661534       -18.0013
 171   2.0000      -0.659762       -17.9530
 172   2.0000      -0.653384       -17.7795
 173   2.0000      -0.648749       -17.6534
 174   2.0000      -0.643086       -17.4993
 175   2.0000      -0.639985       -17.4149
 176   2.0000      -0.639052       -17.3895
 177   2.0000      -0.635469       -17.2920
 178   2.0000      -0.631457       -17.1828
 179   2.0000      -0.628283       -17.0964
 180   2.0000      -0.616325       -16.7710
 181   2.0000      -0.607190       -16.5225
 182   2.0000      -0.605889       -16.4871
 183   2.0000      -0.603677       -16.4269
 184   2.0000      -0.596424       -16.2295
 185   2.0000      -0.595307       -16.1991
 186   2.0000      -0.592560       -16.1244
 187   2.0000      -0.580857       -15.8059
 188   2.0000      -0.578379       -15.7385
 189   2.0000      -0.571776       -15.5588
 190   2.0000      -0.568832       -15.4787
 191   2.0000      -0.566425       -15.4132
 192   2.0000      -0.564303       -15.3555
 193   2.0000      -0.549879       -14.9630
 194   2.0000      -0.548688       -14.9306
 195   2.0000      -0.546473       -14.8703
 196   2.0000      -0.545495       -14.8437
 197   2.0000      -0.544577       -14.8187
 198   2.0000      -0.543313       -14.7843
 199   2.0000      -0.541181       -14.7263
 200   2.0000      -0.536079       -14.5874
 201   2.0000      -0.535142       -14.5620
 202   2.0000      -0.531700       -14.4683
 203   2.0000      -0.530482       -14.4352
 204   2.0000      -0.529247       -14.4015
 205   2.0000      -0.527492       -14.3538
 206   2.0000      -0.520063       -14.1516
 207   2.0000      -0.517760       -14.0890
 208   2.0000      -0.515106       -14.0167
 209   2.0000      -0.511980       -13.9317
 210   2.0000      -0.510111       -13.8808
 211   2.0000      -0.508674       -13.8417
 212   2.0000      -0.507160       -13.8005
 213   2.0000      -0.506340       -13.7782
 214   2.0000      -0.505198       -13.7471
 215   2.0000      -0.502985       -13.6869
 216   2.0000      -0.500477       -13.6187
 217   2.0000      -0.498330       -13.5602
 218   2.0000      -0.495879       -13.4936
 219   2.0000      -0.493484       -13.4284
 220   2.0000      -0.491033       -13.3617
 221   2.0000      -0.486790       -13.2462
 222   2.0000      -0.485862       -13.2210
 223   2.0000      -0.483725       -13.1628
 224   2.0000      -0.480636       -13.0788
 225   2.0000      -0.478466       -13.0197
 226   2.0000      -0.474613       -12.9149
 227   2.0000      -0.474166       -12.9027
 228   2.0000      -0.471480       -12.8296
 229   2.0000      -0.465936       -12.6788
 230   2.0000      -0.464766       -12.6469
 231   2.0000      -0.463824       -12.6213
 232   2.0000      -0.463121       -12.6022
 233   2.0000      -0.461692       -12.5633
 234   2.0000      -0.458936       -12.4883
 235   2.0000      -0.455724       -12.4009
 236   2.0000      -0.452994       -12.3266
 237   2.0000      -0.450928       -12.2704
 238   2.0000      -0.449398       -12.2287
 239   2.0000      -0.445030       -12.1099
 240   2.0000      -0.443803       -12.0765
 241   2.0000      -0.443672       -12.0729
 242   2.0000      -0.440759       -11.9937
 243   2.0000      -0.439489       -11.9591
 244   2.0000      -0.438101       -11.9213
 245   2.0000      -0.436863       -11.8876
 246   2.0000      -0.435319       -11.8456
 247   2.0000      -0.432858       -11.7787
 248   2.0000      -0.431318       -11.7368
 249   2.0000      -0.430845       -11.7239
 250   2.0000      -0.430311       -11.7094
 251   2.0000      -0.429527       -11.6880
 252   2.0000      -0.427676       -11.6376
 253   2.0000      -0.426087       -11.5944
 254   2.0000      -0.424916       -11.5625
 255   2.0000      -0.423211       -11.5162
 256   2.0000      -0.421051       -11.4574
 257   2.0000      -0.420684       -11.4474
 258   2.0000      -0.417189       -11.3523
 259   2.0000      -0.415805       -11.3146
 260   2.0000      -0.414506       -11.2793
 261   2.0000      -0.407757       -11.0956
 262   2.0000      -0.404337       -11.0026
 263   2.0000      -0.399049       -10.8587
 264   2.0000      -0.398254       -10.8370
 265   2.0000      -0.395036       -10.7495
 266   2.0000      -0.386008       -10.5038
 267   2.0000      -0.382187       -10.3998
 268   2.0000      -0.379909       -10.3378
 269   2.0000      -0.373492       -10.1632
 270   2.0000      -0.368920       -10.0388
 271   2.0000      -0.362561        -9.8658
 272   2.0000      -0.355955        -9.6860
 273   2.0000      -0.355228        -9.6662
 274   2.0000      -0.344963        -9.3869
 275   2.0000      -0.342717        -9.3258
 276   2.0000      -0.340151        -9.2560
 277   2.0000      -0.337095        -9.1728
 278   2.0000      -0.332495        -9.0476
 279   2.0000      -0.316946        -8.6245
 280   2.0000      -0.315534        -8.5861
 281   2.0000      -0.307291        -8.3618
 282   2.0000      -0.295627        -8.0444
 283   2.0000      -0.294085        -8.0025
 284   2.0000      -0.293450        -7.9852
 285   2.0000      -0.291620        -7.9354
 286   2.0000      -0.274539        -7.4706
 287   2.0000      -0.243372        -6.6225
 288   0.0000      -0.141138        -3.8406
 289   0.0000      -0.093825        -2.5531
 290   0.0000      -0.091180        -2.4811
 291   0.0000      -0.065053        -1.7702
 292   0.0000      -0.057257        -1.5580

MULLIKEN ATOMIC CHARGES
-----------------------
   0 C :    0.266393
   1 C :   -0.343424
   2 C :   -0.173088
   3 N :    0.154237
   4 C :   -0.209944
   5 N :    0.179473
   6 C :    0.038203
   7 C :    0.011467
   8 C :   -0.082683
   9 C :    0.095132
  10 C :    0.095105
  11 C :   -0.085133
  12 C :   -0.019967
  13 C :    0.038438
  14 C :    0.035691
  15 C :   -0.015411
  16 C :    0.138353
  17 O :   -0.142761
  18 C :   -0.135467
  19 C :    0.084200
  20 C :   -0.108152
  21 C :    0.009250
  22 C :   -0.035790
  23 C :   -0.066100
  24 S :    0.186439
  25 C :   -0.039229
  26 C :   -0.004214
  27 S :    0.171095
  28 C :   -0.048407
  29 C :   -0.168929
  30 S :    0.178325
  31 C :    0.193621
  32 C :   -0.058374
  33 C :   -0.059866
  34 N :    0.007229
  35 C :   -0.101459
  36 C :   -0.100409
  37 N :    0.005605
  38 C :   -0.241809
  39 N :    0.256003
  40 C :   -0.243141
  41 N :    0.259966
  42 C :    0.191337
  43 C :   -0.011186
  44 C :   -0.014298
  45 N :   -0.288970
  46 S :    0.562588
  47 N :   -0.290622
  48 C :   -0.168324
  49 C :   -0.050597
  50 C :   -0.004127
  51 C :   -0.040497
  52 S :    0.177744
  53 C :   -0.069992
  54 C :   -0.033086
  55 S :    0.168567
  56 C :   -0.004731
  57 C :   -0.110078
  58 S :    0.177246
  59 C :    0.039784
  60 C :   -0.092341
  61 C :    0.297276
  62 C :   -0.344472
  63 C :   -0.182372
  64 N :    0.146701
  65 C :   -0.209864
  66 N :    0.164671
  67 C :    0.046267
  68 C :    0.003213
  69 C :    0.161024
  70 O :   -0.161965
  71 C :   -0.084430
  72 C :    0.099118
  73 C :    0.097203
  74 C :   -0.082672
  75 C :   -0.019251
  76 C :    0.035240
  77 C :    0.035500
  78 C :   -0.017869
  79 H :   -0.011597
  80 H :   -0.006851
  81 H :   -0.011630
  82 H :   -0.005800
  83 H :   -0.005032
  84 H :   -0.017011
  85 H :    0.025585
  86 H :    0.004461
  87 H :    0.001723
  88 H :    0.001660
  89 H :    0.019853
  90 H :    0.020642
  91 H :   -0.014310
  92 H :   -0.006617
  93 H :   -0.009165
  94 H :   -0.004574
  95 H :   -0.005586
  96 H :   -0.017955
Sum of atomic charges:   -0.0000000

LOEWDIN ATOMIC CHARGES
----------------------
   0 C :    0.066006
   1 C :   -0.143693
   2 C :   -0.020332
   3 N :   -0.053376
   4 C :   -0.021156
   5 N :   -0.039973
   6 C :   -0.023078
   7 C :   -0.057080
   8 C :    0.032796
   9 C :   -0.009306
  10 C :   -0.005702
  11 C :    0.014469
  12 C :   -0.006853
  13 C :   -0.013023
  14 C :   -0.013332
  15 C :   -0.008956
  16 C :    0.083129
  17 O :   -0.142862
  18 C :   -0.092451
  19 C :    0.045778
  20 C :   -0.171189
  21 C :   -0.023128
  22 C :   -0.180684
  23 C :   -0.199013
  24 S :    0.459965
  25 C :   -0.212930
  26 C :   -0.184447
  27 S :    0.412902
  28 C :   -0.039186
  29 C :   -0.158690
  30 S :    0.467771
  31 C :   -0.034650
  32 C :   -0.013353
  33 C :   -0.012389
  34 N :   -0.012420
  35 C :   -0.018229
  36 C :   -0.019736
  37 N :   -0.011777
  38 C :   -0.039132
  39 N :    0.004774
  40 C :   -0.039291
  41 N :    0.006169
  42 C :   -0.038332
  43 C :   -0.035191
  44 C :   -0.036076
  45 N :   -0.274626
  46 S :    0.684892
  47 N :   -0.275962
  48 C :   -0.156459
  49 C :   -0.042759
  50 C :   -0.183483
  51 C :   -0.217344
  52 S :    0.467577
  53 C :   -0.199106
  54 C :   -0.188687
  55 S :    0.411248
  56 C :   -0.016661
  57 C :   -0.169520
  58 S :    0.452927
  59 C :    0.045505
  60 C :   -0.093725
  61 C :    0.075919
  62 C :   -0.141810
  63 C :   -0.017374
  64 N :   -0.055192
  65 C :   -0.027684
  66 N :   -0.050233
  67 C :   -0.025463
  68 C :   -0.054559
  69 C :    0.088295
  70 O :   -0.146016
  71 C :    0.030526
  72 C :   -0.008704
  73 C :   -0.006140
  74 C :    0.018816
  75 C :   -0.005522
  76 C :   -0.013903
  77 C :   -0.013120
  78 C :   -0.010230
  79 H :    0.039597
  80 H :    0.038209
  81 H :    0.033984
  82 H :    0.032929
  83 H :    0.032803
  84 H :    0.032023
  85 H :    0.046987
  86 H :    0.038536
  87 H :    0.034069
  88 H :    0.033834
  89 H :    0.039178
  90 H :    0.044529
  91 H :    0.038126
  92 H :    0.039129
  93 H :    0.034793
  94 H :    0.033143
  95 H :    0.032522
  96 H :    0.031441

  Mayer bond orders larger than 0.100000
B(  0-C ,  1-C ) :   1.6423 B(  0-C ,  6-C ) :   0.9982 B(  0-C , 18-C ) :   1.0427
B(  1-C ,  2-C ) :   1.1305 B(  1-C ,  4-C ) :   1.1663 B(  2-C ,  3-N ) :   2.9885
B(  4-C ,  5-N ) :   3.0068 B(  6-C ,  7-C ) :   1.2141 B(  6-C , 11-C ) :   1.4555
B(  7-C ,  8-C ) :   1.4753 B(  7-C , 16-C ) :   0.9201 B(  8-C ,  9-C ) :   1.1806
B(  8-C , 79-H ) :   1.0177 B(  9-C , 10-C ) :   1.2579 B(  9-C , 15-C ) :   1.2446
B( 10-C , 11-C ) :   1.2020 B( 10-C , 12-C ) :   1.2404 B( 11-C , 80-H ) :   0.9955
B( 12-C , 13-C ) :   1.4893 B( 12-C , 81-H ) :   0.9984 B( 13-C , 14-C ) :   1.2593
B( 13-C , 82-H ) :   0.9887 B( 14-C , 15-C ) :   1.4874 B( 14-C , 83-H ) :   0.9893
B( 15-C , 84-H ) :   0.9987 B( 16-C , 17-O ) :   2.2653 B( 16-C , 18-C ) :   0.9394
B( 18-C , 19-C ) :   1.6614 B( 19-C , 20-C ) :   1.1503 B( 19-C , 85-H ) :   0.9235
B( 20-C , 21-C ) :   1.4377 B( 20-C , 24-S ) :   1.0842 B( 21-C , 22-C ) :   1.3472
B( 21-C , 86-H ) :   0.9869 B( 22-C , 23-C ) :   1.4104 B( 22-C , 27-S ) :   1.0490
B( 23-C , 24-S ) :   1.0963 B( 23-C , 25-C ) :   1.3292 B( 25-C , 26-C ) :   1.4176
B( 25-C , 30-S ) :   1.0267 B( 26-C , 27-S ) :   1.0440 B( 26-C , 28-C ) :   1.2782
B( 28-C , 29-C ) :   1.4507 B( 28-C , 87-H ) :   0.9881 B( 29-C , 30-S ) :   1.0866
B( 29-C , 31-C ) :   1.2208 B( 31-C , 32-C ) :   1.2512 B( 31-C , 42-C ) :   0.1203
B( 31-C , 44-C ) :   1.1943 B( 32-C , 33-C ) :   1.1101 B( 32-C , 37-N ) :   1.4019
B( 33-C , 34-N ) :   1.4007 B( 33-C , 42-C ) :   1.2540 B( 34-N , 35-C ) :   1.7006
B( 35-C , 36-C ) :   1.2134 B( 35-C , 40-C ) :   1.1689 B( 36-C , 37-N ) :   1.6993
B( 36-C , 38-C ) :   1.1662 B( 38-C , 39-N ) :   3.0401 B( 40-C , 41-N ) :   3.0411
B( 42-C , 43-C ) :   1.1990 B( 42-C , 48-C ) :   1.2137 B( 43-C , 44-C ) :   1.0990
B( 43-C , 47-N ) :   1.5135 B( 44-C , 45-N ) :   1.5147 B( 45-N , 46-S ) :   1.2818
B( 45-N , 47-N ) :   0.1485 B( 46-S , 47-N ) :   1.2800 B( 48-C , 49-C ) :   1.4560
B( 48-C , 52-S ) :   1.0885 B( 49-C , 50-C ) :   1.2741 B( 49-C , 88-H ) :   0.9890
B( 50-C , 51-C ) :   1.4164 B( 50-C , 55-S ) :   1.0453 B( 51-C , 52-S ) :   1.0270
B( 51-C , 53-C ) :   1.3258 B( 53-C , 54-C ) :   1.3945 B( 53-C , 58-S ) :   1.1041
B( 54-C , 55-S ) :   1.0467 B( 54-C , 56-C ) :   1.2988 B( 56-C , 57-C ) :   1.4455
B( 56-C , 89-H ) :   0.9776 B( 57-C , 58-S ) :   1.0699 B( 57-C , 59-C ) :   1.2194
B( 59-C , 60-C ) :   1.5945 B( 59-C , 90-H ) :   0.9205 B( 60-C , 61-C ) :   1.0710
B( 60-C , 69-C ) :   0.9418 B( 61-C , 62-C ) :   1.6336 B( 61-C , 67-C ) :   0.9874
B( 62-C , 63-C ) :   1.1450 B( 62-C , 65-C ) :   1.1376 B( 63-C , 64-N ) :   2.9710
B( 65-C , 66-N ) :   3.0009 B( 67-C , 68-C ) :   1.2164 B( 67-C , 74-C ) :   1.4529
B( 68-C , 69-C ) :   0.9517 B( 68-C , 71-C ) :   1.4712 B( 69-C , 70-O ) :   2.1666
B( 71-C , 72-C ) :   1.1786 B( 71-C , 91-H ) :   1.0163 B( 72-C , 73-C ) :   1.2572
B( 72-C , 78-C ) :   1.2447 B( 73-C , 74-C ) :   1.2045 B( 73-C , 75-C ) :   1.2397
B( 74-C , 92-H ) :   0.9912 B( 75-C , 76-C ) :   1.4891 B( 75-C , 93-H ) :   0.9975
B( 76-C , 77-C ) :   1.2608 B( 76-C , 94-H ) :   0.9880 B( 77-C , 78-C ) :   1.4881
B( 77-C , 95-H ) :   0.9891 B( 78-C , 96-H ) :   0.9979

-----------------------------------------------------------------------------
         ABSORPTION SPECTRUM VIA TRANSITION ELECTRIC DIPOLE MOMENTS
-----------------------------------------------------------------------------
State   Energy  Wavelength   fosc         T2         TX        TY        TZ
        (cm-1)    (nm)                  (au**2)     (au)      (au)      (au)
-----------------------------------------------------------------------------
   0    7481.4   1336.6   0.808423596  35.57374   1.42325  -5.53198   1.71618
   1   15939.0    627.4   0.008218652   0.16975  -0.35296  -0.06809  -0.20133
   2   17555.6    569.6   0.079698058   1.49454  -0.29035   1.14044  -0.33110
   3   17780.3    562.4   0.018719692   0.34660  -0.13087  -0.20680  -0.53545
   4   19090.7    523.8   1.267660636  21.86028   0.87825  -4.42383   1.23234
   5   19984.9    500.4   0.653508631  10.76526  -0.32215   3.23203  -0.46415
   6   22520.5    444.0   0.052566536   0.76844  -0.05656   0.85752  -0.17290
   7   23572.5    424.2   0.092568655   1.29281   0.03962  -0.90441  -0.68795
   8   24084.9    415.2   0.002743895   0.03751  -0.15796  -0.05996  -0.09466
   9   24205.6    413.1   0.023079782   0.31390   0.29872  -0.14235   0.45211
  10   24352.3    410.6   0.005526979   0.07472  -0.23326  -0.02651   0.14002
  11   24817.1    402.9   0.069405949   0.92071  -0.38188   0.87520  -0.09428
  12   26664.7    375.0   0.051607247   0.63716  -0.08165  -0.69977  -0.37526
  13   27177.3    368.0   0.173463561   2.10125   0.97548  -0.72578   0.78927
  14   27352.9    365.6   0.050429528   0.60696  -0.32483   0.57673  -0.41088
  15   27497.2    363.7   0.015535124   0.18599   0.29083  -0.30083  -0.10448
  16   27638.6    361.8   0.006384024   0.07604  -0.21246  -0.16491   0.06091
  17   27965.7    357.6   0.026764316   0.31507  -0.33805  -0.15838  -0.41918
  18   28117.9    355.6   0.043929259   0.51434  -0.03276  -0.09049   0.71069
  19   28179.6    354.9   0.184929145   2.16046  -0.76375   0.72756  -1.02362
  20   28644.3    349.1   0.005285465   0.06075  -0.02123   0.23999  -0.05195
  21   28676.8    348.7   0.021482229   0.24662  -0.20146   0.42717  -0.15347
  22   29059.7    344.1   0.104813957   1.18742   0.33144  -1.01608   0.21248
  23   29191.8    342.6   0.119670030   1.34959  -0.70830   0.52487  -0.75657
  24   29681.6    336.9   0.466279929   5.17172  -1.18021   1.92492  -0.27114
  25   29731.3    336.3   0.005684362   0.06294   0.22331   0.02282   0.11205
  26   29992.2    333.4   0.072164942   0.79212  -0.36698   0.04358  -0.80966
  27   31314.6    319.3   0.034186580   0.35940  -0.08770   0.50563  -0.30992
  28   31443.9    318.0   0.005560848   0.05822   0.06911  -0.00271   0.23117
  29   31502.7    317.4   0.522077743   5.45586   0.36139   0.87038   2.13722
  30   31658.7    315.9   0.102864653   1.06967   0.17656  -0.98512   0.26082
  31   31767.0    314.8   0.061488297   0.63722   0.33308   0.16000   0.70759
  32   32214.2    310.4   0.003957199   0.04044   0.08956  -0.03561   0.17650
  33   32344.9    309.2   0.079912700   0.81336  -0.14622  -0.88825  -0.05471
  34   33292.4    300.4   0.004603508   0.04552   0.20150  -0.06892   0.01298
  35   33754.7    296.3   0.041724435   0.40694  -0.43780   0.03295  -0.46280
  36   33924.8    294.8   0.153753754   1.49205  -1.00619   0.60134  -0.34355
  37   34129.4    293.0   0.082717741   0.79790  -0.61199   0.65055  -0.01222
  38   34231.4    292.1   0.007915710   0.07613  -0.27443  -0.01958   0.02076
  39   34524.4    289.6   0.385737097   3.67824  -1.28018   0.68212  -1.25463
  40   34669.3    288.4   0.098467453   0.93502   0.68108  -0.32580   0.60416
  41   34828.9    287.1   0.070674904   0.66804   0.58516  -0.51298   0.24997
  42   35107.5    284.8   0.049250848   0.46184  -0.43141  -0.01827  -0.52477
  43   35251.0    283.7   0.458899843   4.28570  -1.54396   0.99730  -0.95250
  44   35464.4    282.0   0.323746254   3.00530   1.18142  -1.23335   0.29733
  45   35568.9    281.1   0.105118246   0.97293   0.11619   0.23871   0.94997
  46   36043.6    277.4   0.069492508   0.63472   0.00896   0.47088   0.64259
  47   36263.9    275.8   0.146730416   1.33205   0.48549  -1.04447   0.07374
  48   36409.7    274.7   0.012858889   0.11627   0.21636  -0.26253   0.02310
  49   36795.2    271.8   0.013508373   0.12086  -0.13352  -0.05989  -0.31535
  50   37051.9    269.9   0.066004572   0.58646   0.30890  -0.63162   0.30348
  51   37216.0    268.7   0.007623426   0.06744   0.06837   0.20954   0.13731
  52   37398.2    267.4   0.003298658   0.02904  -0.16586   0.03892  -0.00354
  53   37530.4    266.5   0.036145343   0.31706  -0.33616  -0.16462  -0.42067
  54   37568.7    266.2   0.008822438   0.07731  -0.00692   0.23542   0.14778
  55   37821.5    264.4   0.042160870   0.36698   0.27872   0.10357   0.52780
  56   38091.2    262.5   0.034271854   0.29620  -0.11848   0.30480   0.43504
  57   38600.8    259.1   0.046008133   0.39239  -0.46113   0.09878  -0.41229
  58   38846.0    257.4   0.018457948   0.15643  -0.25534  -0.08516  -0.28979
  59   38968.7    256.6   0.008241492   0.06962  -0.01655  -0.03699  -0.26074
  60   39314.9    254.4   0.112600400   0.94288  -0.47662  -0.63302  -0.56125
  61   39457.6    253.4   0.018624902   0.15540   0.19333   0.07353   0.33558
  62   39722.7    251.7   0.056626835   0.46931   0.40548   0.23732   0.49857
  63   39755.5    251.5   0.020440255   0.16926  -0.16531  -0.18989  -0.32539
  64   39843.1    251.0   0.359775366   2.97272  -0.68112  -0.87056  -1.32323
  65   39916.9    250.5   0.124227360   1.02456   0.00190  -0.38674  -0.93541

FINAL SINGLE POINT ENERGY     -5777.780135177552

DIPOLE MOMENT
-------------
                                X             Y             Z
Electronic contribution:     -4.21082      -0.85588       3.05302
Nuclear contribution   :      3.69536      -1.14770      -6.94568
                        -----------------------------------------
Total Dipole Moment    :     -0.51547      -2.00358      -3.89266
                        -----------------------------------------
Magnitude (a.u.)       :      4.40828
Magnitude (Debye)      :     11.20494

Rotational constants in cm-1:     0.002880     0.000144     0.000139
Rotational constants in MHz :    86.335930     4.302454     4.153160

                             ****ORCA TERMINATED NORMALLY****
TOTAL RUN TIME: 0 days 0 hours 10 minutes 44 seconds 618 msec
