                         Program Version 4.2.0 -  RELEASE  -
|  1> # ORCA input file
|  2> # SCF done       -176.302913060190          0.000748532601
|  3> ! CAM-B3LYP def2-SVP def2/J RIJCOSX Grid4 TightSCF
|  4> %maxcore 5000
|  5> %tddft
|  6>     Mode sTDDFT
|  7>     Ethresh 5.0
|  8>     maxcore 5000
|  9> end
| 10>
| 11> %pal
| 12>   nprocs 6
| 13>   end
| 14> * xyz 0 1
| 15>    C       -3.93831         3.33705         4.26536
| 16>    C       -5.01678         3.88856         3.62643
| 17>    C       -6.12384         4.44287         4.29952
| 18>    N       -7.04006         4.91388         4.80520
| 19>    C       -5.17194         3.87109         2.22464
| 20>    N       -5.34292         3.82692         1.09042
| 21>    C       -3.84441         3.06990         5.69470
| 22>    C       -2.88831         2.03104         5.89745
| 23>    C       -2.61761         1.54332         7.14359
| 24>    C       -3.29040         2.09091         8.25948
| 25>    C       -4.23306         3.14174         8.06322
| 26>    C       -4.50220         3.62058         6.76061
| 27>    C       -4.88827         3.68553         9.18658
| 28>    C       -4.62955         3.21346        10.44448
| 29>    C       -3.70345         2.17740        10.63693
| 30>    C       -3.04890         1.62790         9.56807
| 31>    C       -2.29692         1.65002         4.60148
| 32>    O       -1.50244         0.76911         4.36863
| 33>    C       -2.83749         2.64288         3.62659
| 34>    C       -2.21645         2.83440         2.43521
| 35>    C       -2.27958         3.96733         1.58237
| 36>    C       -1.95553         3.99919         0.24064
| 37>    C       -2.08285         5.27717        -0.29970
| 38>    C       -2.46034         6.24772         0.63855
| 39>    S       -2.68564         5.56532         2.19904
| 40>    C       -2.57035         7.52128         0.07581
| 41>    C       -2.28437         7.51640        -1.29778
| 42>    S       -1.86592         5.93685        -1.89600
| 43>    C       -2.40348         8.77106        -1.89472
| 44>    C       -2.77613         9.73120        -0.97766
| 45>    S       -2.98294         9.09689         0.63928
| 46>    C       -3.01534        11.10860        -1.19660
| 47>    N       -3.33949        11.94039        -0.25259
| 48>    C       -3.52763        13.16465        -0.74082
| 49>    C       -3.35019        13.32304        -2.12659
| 50>    S       -2.91094        11.81747        -2.83104
| 51>    N       -3.55318        14.54419        -2.61803
| 52>    C       -3.88635        15.37165        -1.67001
| 53>    S       -3.96998        14.66537        -0.03602
| 54>    C       -4.18983        16.73862        -1.89099
| 55>    C       -4.22284        17.37980        -3.11294
| 56>    C       -4.58517        18.71916        -2.97773
| 57>    C       -4.82436        19.10499        -1.64991
| 58>    S       -4.59892        17.79177        -0.55650
| 59>    C       -5.19564        20.44714        -1.54562
| 60>    C       -5.24642        21.08251        -2.79972
| 61>    S       -4.81948        20.01762        -4.11191
| 62>    C       -5.62718        22.41725        -2.74345
| 63>    C       -5.87527        22.83067        -1.44521
| 64>    S       -5.61225        21.52614        -0.27952
| 65>    C       -6.26214        24.07043        -0.89391
| 66>    C       -6.67576        25.23246        -1.48226
| 67>    C       -7.02830        26.42729        -0.72752
| 68>    C       -6.69874        26.70474         0.57346
| 69>    C       -7.05962        27.89557         1.23910
| 70>    N       -7.32378        28.83763         1.83937
| 71>    C       -5.92111        25.88795         1.42196
| 72>    N       -5.27813        25.29808         2.16895
| 73>    C       -7.72966        27.33411        -1.62710
| 74>    C       -7.70388        26.77582        -2.93561
| 75>    C       -7.00022        25.48258        -2.90946
| 76>    O       -6.76393        24.78563        -3.87481
| 77>    C       -8.27676        27.40619        -4.00236
| 78>    C       -8.92286        28.64644        -3.80265
| 79>    C       -8.96072        29.20883        -2.49401
| 80>    C       -8.35308        28.53447        -1.41011
| 81>    C       -9.61298        30.44425        -2.30491
| 82>    C      -10.19992        31.09422        -3.35629
| 83>    C      -10.16209        30.53944        -4.64427
| 84>    C       -9.53638        29.34208        -4.86287
| 85>    H       -1.89746         0.75002         7.27857
| 86>    H       -5.21269         4.42316         6.63645
| 87>    H       -5.60278         4.48068         9.03237
| 88>    H       -5.13763         3.63567        11.29849
| 89>    H       -3.51086         1.81730        11.63645
| 90>    H       -2.33464         0.83021         9.71074
| 91>    H       -1.52039         2.05684         2.13553
| 92>    H       -1.67908         3.12419        -0.31799
| 93>    H       -2.23308         8.97944        -2.93485
| 94>    H       -3.99863        16.88036        -4.03603
| 95>    H       -5.73156        23.06493        -3.59413
| 96>    H       -6.24860        24.06564         0.19034
| 97>    H       -8.23926        26.96208        -4.98603
| 98>    H       -8.40449        28.98398        -0.43134
| 99>    H       -9.63885        30.86764        -1.31159
|100>    H      -10.69762        32.03967        -3.20102
|101>    H      -10.63124        31.06546        -5.46224
|102>    H       -9.50362        28.91007        -5.85239
|103> *
|104>
|105>                          ****END OF INPUT****

CARTESIAN COORDINATES (ANGSTROEM)
---------------------------------
  C     -3.938310    3.337050    4.265360
  C     -5.016780    3.888560    3.626430
  C     -6.123840    4.442870    4.299520
  N     -7.040060    4.913880    4.805200
  C     -5.171940    3.871090    2.224640
  N     -5.342920    3.826920    1.090420
  C     -3.844410    3.069900    5.694700
  C     -2.888310    2.031040    5.897450
  C     -2.617610    1.543320    7.143590
  C     -3.290400    2.090910    8.259480
  C     -4.233060    3.141740    8.063220
  C     -4.502200    3.620580    6.760610
  C     -4.888270    3.685530    9.186580
  C     -4.629550    3.213460   10.444480
  C     -3.703450    2.177400   10.636930
  C     -3.048900    1.627900    9.568070
  C     -2.296920    1.650020    4.601480
  O     -1.502440    0.769110    4.368630
  C     -2.837490    2.642880    3.626590
  C     -2.216450    2.834400    2.435210
  C     -2.279580    3.967330    1.582370
  C     -1.955530    3.999190    0.240640
  C     -2.082850    5.277170   -0.299700
  C     -2.460340    6.247720    0.638550
  S     -2.685640    5.565320    2.199040
  C     -2.570350    7.521280    0.075810
  C     -2.284370    7.516400   -1.297780
  S     -1.865920    5.936850   -1.896000
  C     -2.403480    8.771060   -1.894720
  C     -2.776130    9.731200   -0.977660
  S     -2.982940    9.096890    0.639280
  C     -3.015340   11.108600   -1.196600
  N     -3.339490   11.940390   -0.252590
  C     -3.527630   13.164650   -0.740820
  C     -3.350190   13.323040   -2.126590
  S     -2.910940   11.817470   -2.831040
  N     -3.553180   14.544190   -2.618030
  C     -3.886350   15.371650   -1.670010
  S     -3.969980   14.665370   -0.036020
  C     -4.189830   16.738620   -1.890990
  C     -4.222840   17.379800   -3.112940
  C     -4.585170   18.719160   -2.977730
  C     -4.824360   19.104990   -1.649910
  S     -4.598920   17.791770   -0.556500
  C     -5.195640   20.447140   -1.545620
  C     -5.246420   21.082510   -2.799720
  S     -4.819480   20.017620   -4.111910
  C     -5.627180   22.417250   -2.743450
  C     -5.875270   22.830670   -1.445210
  S     -5.612250   21.526140   -0.279520
  C     -6.262140   24.070430   -0.893910
  C     -6.675760   25.232460   -1.482260
  C     -7.028300   26.427290   -0.727520
  C     -6.698740   26.704740    0.573460
  C     -7.059620   27.895570    1.239100
  N     -7.323780   28.837630    1.839370
  C     -5.921110   25.887950    1.421960
  N     -5.278130   25.298080    2.168950
  C     -7.729660   27.334110   -1.627100
  C     -7.703880   26.775820   -2.935610
  C     -7.000220   25.482580   -2.909460
  O     -6.763930   24.785630   -3.874810
  C     -8.276760   27.406190   -4.002360
  C     -8.922860   28.646440   -3.802650
  C     -8.960720   29.208830   -2.494010
  C     -8.353080   28.534470   -1.410110
  C     -9.612980   30.444250   -2.304910
  C    -10.199920   31.094220   -3.356290
  C    -10.162090   30.539440   -4.644270
  C     -9.536380   29.342080   -4.862870
  H     -1.897460    0.750020    7.278570
  H     -5.212690    4.423160    6.636450
  H     -5.602780    4.480680    9.032370
  H     -5.137630    3.635670   11.298490
  H     -3.510860    1.817300   11.636450
  H     -2.334640    0.830210    9.710740
  H     -1.520390    2.056840    2.135530
  H     -1.679080    3.124190   -0.317990
  H     -2.233080    8.979440   -2.934850
  H     -3.998630   16.880360   -4.036030
  H     -5.731560   23.064930   -3.594130
  H     -6.248600   24.065640    0.190340
  H     -8.239260   26.962080   -4.986030
  H     -8.404490   28.983980   -0.431340
  H     -9.638850   30.867640   -1.311590
  H    -10.697620   32.039670   -3.201020
  H    -10.631240   31.065460   -5.462240
  H     -9.503620   28.910070   -5.852390

 Total Charge           Charge          ....    0
 Multiplicity           Mult            ....    1
 Number of Electrons    NEL             ....  528
 Basis Dimension        Dim             .... 1102

ORBITAL ENERGIES
----------------

  NO   OCC          E(Eh)            E(eV)
   0   2.0000     -88.979951     -2421.2676
   1   2.0000     -88.978284     -2421.2222
   2   2.0000     -88.977745     -2421.2075
   3   2.0000     -88.974313     -2421.1141
   4   2.0000     -88.974102     -2421.1084
   5   2.0000     -88.973430     -2421.0901
   6   2.0000     -88.970758     -2421.0174
   7   2.0000     -88.969758     -2420.9902
   8   2.0000     -19.217987      -522.9480
   9   2.0000     -19.212512      -522.7990
  10   2.0000     -14.431431      -392.6992
  11   2.0000     -14.431348      -392.6969
  12   2.0000     -14.413324      -392.2065
  13   2.0000     -14.413289      -392.2055
  14   2.0000     -14.411237      -392.1497
  15   2.0000     -14.410279      -392.1236
  16   2.0000     -10.368984      -282.1544
  17   2.0000     -10.364540      -282.0335
  18   2.0000     -10.359657      -281.9006
  19   2.0000     -10.359583      -281.8986
  20   2.0000     -10.340999      -281.3929
  21   2.0000     -10.338769      -281.3322
  22   2.0000     -10.338762      -281.3320
  23   2.0000     -10.338611      -281.3279
  24   2.0000     -10.338208      -281.3169
  25   2.0000     -10.338011      -281.3116
  26   2.0000     -10.328155      -281.0434
  27   2.0000     -10.327544      -281.0268
  28   2.0000     -10.325150      -280.9616
  29   2.0000     -10.324135      -280.9340
  30   2.0000     -10.323689      -280.9218
  31   2.0000     -10.323222      -280.9092
  32   2.0000     -10.321453      -280.8610
  33   2.0000     -10.321343      -280.8580
  34   2.0000     -10.321167      -280.8532
  35   2.0000     -10.320673      -280.8398
  36   2.0000     -10.319153      -280.7984
  37   2.0000     -10.318343      -280.7764
  38   2.0000     -10.316476      -280.7256
  39   2.0000     -10.316241      -280.7192
  40   2.0000     -10.315691      -280.7042
  41   2.0000     -10.315655      -280.7032
  42   2.0000     -10.314414      -280.6695
  43   2.0000     -10.312405      -280.6148
  44   2.0000     -10.305640      -280.4307
  45   2.0000     -10.302952      -280.3576
  46   2.0000     -10.301774      -280.3255
  47   2.0000     -10.300618      -280.2941
  48   2.0000     -10.300455      -280.2896
  49   2.0000     -10.299089      -280.2525
  50   2.0000     -10.297610      -280.2122
  51   2.0000     -10.296666      -280.1865
  52   2.0000     -10.296464      -280.1810
  53   2.0000     -10.296270      -280.1758
  54   2.0000     -10.296135      -280.1721
  55   2.0000     -10.295946      -280.1669
  56   2.0000     -10.295704      -280.1604
  57   2.0000     -10.295107      -280.1441
  58   2.0000     -10.295059      -280.1428
  59   2.0000     -10.294772      -280.1350
  60   2.0000     -10.288121      -279.9540
  61   2.0000     -10.286900      -279.9208
  62   2.0000     -10.285493      -279.8825
  63   2.0000     -10.285156      -279.8733
  64   2.0000     -10.284921      -279.8669
  65   2.0000     -10.284760      -279.8626
  66   2.0000     -10.284589      -279.8579
  67   2.0000     -10.284509      -279.8557
  68   2.0000     -10.284070      -279.8438
  69   2.0000     -10.283993      -279.8417
  70   2.0000      -8.075264      -219.7391
  71   2.0000      -8.074269      -219.7120
  72   2.0000      -8.073526      -219.6918
  73   2.0000      -8.069699      -219.5877
  74   2.0000      -8.068806      -219.5634
  75   2.0000      -8.068153      -219.5456
  76   2.0000      -8.066035      -219.4880
  77   2.0000      -8.064951      -219.4585
  78   2.0000      -6.044821      -164.4879
  79   2.0000      -6.043454      -164.4507
  80   2.0000      -6.042736      -164.4312
  81   2.0000      -6.040769      -164.3777
  82   2.0000      -6.039718      -164.3491
  83   2.0000      -6.039141      -164.3334
  84   2.0000      -6.039059      -164.3311
  85   2.0000      -6.038441      -164.3143
  86   2.0000      -6.037757      -164.2957
  87   2.0000      -6.036744      -164.2682
  88   2.0000      -6.036008      -164.2481
  89   2.0000      -6.035774      -164.2418
  90   2.0000      -6.035189      -164.2258
  91   2.0000      -6.035130      -164.2242
  92   2.0000      -6.034706      -164.2127
  93   2.0000      -6.034246      -164.2002
  94   2.0000      -6.033645      -164.1838
  95   2.0000      -6.031915      -164.1368
  96   2.0000      -6.031317      -164.1205
  97   2.0000      -6.030841      -164.1075
  98   2.0000      -6.030311      -164.0931
  99   2.0000      -6.029667      -164.0756
 100   2.0000      -6.026932      -164.0012
 101   2.0000      -6.025881      -163.9726
 102   2.0000      -1.132654       -30.8211
 103   2.0000      -1.127924       -30.6924
 104   2.0000      -1.103875       -30.0380
 105   2.0000      -1.064535       -28.9675
 106   2.0000      -1.033730       -28.1292
 107   2.0000      -1.031795       -28.0766
 108   2.0000      -1.016101       -27.6495
 109   2.0000      -1.015954       -27.6455
 110   2.0000      -0.996938       -27.1281
 111   2.0000      -0.996061       -27.1042
 112   2.0000      -0.994524       -27.0624
 113   2.0000      -0.993463       -27.0335
 114   2.0000      -0.990669       -26.9575
 115   2.0000      -0.988336       -26.8940
 116   2.0000      -0.969933       -26.3932
 117   2.0000      -0.969852       -26.3910
 118   2.0000      -0.945120       -25.7180
 119   2.0000      -0.942908       -25.6578
 120   2.0000      -0.924020       -25.1439
 121   2.0000      -0.921745       -25.0820
 122   2.0000      -0.920387       -25.0450
 123   2.0000      -0.900700       -24.5093
 124   2.0000      -0.899850       -24.4862
 125   2.0000      -0.893415       -24.3111
 126   2.0000      -0.884237       -24.0613
 127   2.0000      -0.881840       -23.9961
 128   2.0000      -0.879703       -23.9379
 129   2.0000      -0.878636       -23.9089
 130   2.0000      -0.872631       -23.7455
 131   2.0000      -0.865135       -23.5415
 132   2.0000      -0.850015       -23.1301
 133   2.0000      -0.847546       -23.0629
 134   2.0000      -0.843930       -22.9645
 135   2.0000      -0.826835       -22.4993
 136   2.0000      -0.826737       -22.4967
 137   2.0000      -0.822920       -22.3928
 138   2.0000      -0.811872       -22.0921
 139   2.0000      -0.805874       -21.9289
 140   2.0000      -0.794944       -21.6315
 141   2.0000      -0.787166       -21.4199
 142   2.0000      -0.765210       -20.8224
 143   2.0000      -0.760268       -20.6879
 144   2.0000      -0.757425       -20.6106
 145   2.0000      -0.745702       -20.2916
 146   2.0000      -0.722719       -19.6662
 147   2.0000      -0.711051       -19.3487
 148   2.0000      -0.703595       -19.1458
 149   2.0000      -0.702744       -19.1226
 150   2.0000      -0.699326       -19.0296
 151   2.0000      -0.696505       -18.9529
 152   2.0000      -0.689281       -18.7563
 153   2.0000      -0.680940       -18.5293
 154   2.0000      -0.675047       -18.3690
 155   2.0000      -0.674821       -18.3628
 156   2.0000      -0.665549       -18.1105
 157   2.0000      -0.661798       -18.0084
 158   2.0000      -0.661488       -18.0000
 159   2.0000      -0.654143       -17.8001
 160   2.0000      -0.646145       -17.5825
 161   2.0000      -0.641832       -17.4651
 162   2.0000      -0.634637       -17.2693
 163   2.0000      -0.631153       -17.1745
 164   2.0000      -0.629039       -17.1170
 165   2.0000      -0.619489       -16.8571
 166   2.0000      -0.609751       -16.5922
 167   2.0000      -0.606005       -16.4902
 168   2.0000      -0.605064       -16.4646
 169   2.0000      -0.596317       -16.2266
 170   2.0000      -0.594439       -16.1755
 171   2.0000      -0.587753       -15.9936
 172   2.0000      -0.580647       -15.8002
 173   2.0000      -0.573097       -15.5948
 174   2.0000      -0.568124       -15.4594
 175   2.0000      -0.556054       -15.1310
 176   2.0000      -0.555610       -15.1189
 177   2.0000      -0.551185       -14.9985
 178   2.0000      -0.550275       -14.9738
 179   2.0000      -0.547420       -14.8960
 180   2.0000      -0.545003       -14.8303
 181   2.0000      -0.544990       -14.8299
 182   2.0000      -0.541414       -14.7326
 183   2.0000      -0.537906       -14.6372
 184   2.0000      -0.536470       -14.5981
 185   2.0000      -0.534614       -14.5476
 186   2.0000      -0.531862       -14.4727
 187   2.0000      -0.530206       -14.4276
 188   2.0000      -0.528396       -14.3784
 189   2.0000      -0.528125       -14.3710
 190   2.0000      -0.522018       -14.2048
 191   2.0000      -0.519043       -14.1239
 192   2.0000      -0.517594       -14.0844
 193   2.0000      -0.514758       -14.0073
 194   2.0000      -0.511474       -13.9179
 195   2.0000      -0.509259       -13.8576
 196   2.0000      -0.508939       -13.8489
 197   2.0000      -0.504978       -13.7412
 198   2.0000      -0.504396       -13.7253
 199   2.0000      -0.502579       -13.6759
 200   2.0000      -0.496614       -13.5136
 201   2.0000      -0.494925       -13.4676
 202   2.0000      -0.491642       -13.3783
 203   2.0000      -0.488934       -13.3046
 204   2.0000      -0.486167       -13.2293
 205   2.0000      -0.485419       -13.2089
 206   2.0000      -0.483973       -13.1696
 207   2.0000      -0.482612       -13.1325
 208   2.0000      -0.476253       -12.9595
 209   2.0000      -0.470811       -12.8114
 210   2.0000      -0.468398       -12.7458
 211   2.0000      -0.464568       -12.6415
 212   2.0000      -0.463626       -12.6159
 213   2.0000      -0.462811       -12.5937
 214   2.0000      -0.456630       -12.4255
 215   2.0000      -0.455039       -12.3822
 216   2.0000      -0.446653       -12.1541
 217   2.0000      -0.445738       -12.1292
 218   2.0000      -0.442330       -12.0364
 219   2.0000      -0.441204       -12.0058
 220   2.0000      -0.440322       -11.9818
 221   2.0000      -0.438470       -11.9314
 222   2.0000      -0.438355       -11.9282
 223   2.0000      -0.434046       -11.8110
 224   2.0000      -0.433428       -11.7942
 225   2.0000      -0.431851       -11.7513
 226   2.0000      -0.431525       -11.7424
 227   2.0000      -0.429822       -11.6961
 228   2.0000      -0.428990       -11.6734
 229   2.0000      -0.427509       -11.6331
 230   2.0000      -0.424957       -11.5637
 231   2.0000      -0.423670       -11.5287
 232   2.0000      -0.423251       -11.5173
 233   2.0000      -0.421631       -11.4732
 234   2.0000      -0.419841       -11.4244
 235   2.0000      -0.416700       -11.3390
 236   2.0000      -0.414120       -11.2688
 237   2.0000      -0.405175       -11.0254
 238   2.0000      -0.404045       -10.9946
 239   2.0000      -0.402388       -10.9495
 240   2.0000      -0.400229       -10.8908
 241   2.0000      -0.394602       -10.7377
 242   2.0000      -0.386134       -10.5072
 243   2.0000      -0.385536       -10.4910
 244   2.0000      -0.379831       -10.3357
 245   2.0000      -0.374464       -10.1897
 246   2.0000      -0.368999       -10.0410
 247   2.0000      -0.356624        -9.7042
 248   2.0000      -0.354410        -9.6440
 249   2.0000      -0.348877        -9.4934
 250   2.0000      -0.343956        -9.3595
 251   2.0000      -0.340320        -9.2606
 252   2.0000      -0.337472        -9.1831
 253   2.0000      -0.334232        -9.0949
 254   2.0000      -0.330716        -8.9992
 255   2.0000      -0.316276        -8.6063
 256   2.0000      -0.314434        -8.5562
 257   2.0000      -0.305265        -8.3067
 258   2.0000      -0.296809        -8.0766
 259   2.0000      -0.295518        -8.0414
 260   2.0000      -0.293265        -7.9801
 261   2.0000      -0.289952        -7.8900
 262   2.0000      -0.271647        -7.3919
 263   2.0000      -0.247481        -6.7343
 264   0.0000      -0.100700        -2.7402
 265   0.0000      -0.093368        -2.5407
 266   0.0000      -0.064775        -1.7626
 267   0.0000      -0.056044        -1.5250
 268   0.0000      -0.050929        -1.3859

MULLIKEN ATOMIC CHARGES
-----------------------
   0 C :    0.244331
   1 C :   -0.317121
   2 C :   -0.178932
   3 N :    0.158489
   4 C :   -0.202187
   5 N :    0.171875
   6 C :    0.037003
   7 C :    0.011130
   8 C :   -0.082593
   9 C :    0.094185
  10 C :    0.095136
  11 C :   -0.080295
  12 C :   -0.020103
  13 C :    0.037069
  14 C :    0.035321
  15 C :   -0.015797
  16 C :    0.143994
  17 O :   -0.142841
  18 C :   -0.142265
  19 C :    0.056599
  20 C :   -0.103945
  21 C :    0.020759
  22 C :   -0.019977
  23 C :   -0.066863
  24 S :    0.170295
  25 C :   -0.080294
  26 C :   -0.024462
  27 S :    0.170713
  28 C :   -0.046530
  29 C :   -0.049179
  30 S :    0.219334
  31 C :   -0.092438
  32 N :   -0.040273
  33 C :   -0.056993
  34 C :   -0.054119
  35 S :    0.124147
  36 N :   -0.030138
  37 C :   -0.104002
  38 S :    0.133434
  39 C :   -0.032145
  40 C :   -0.040384
  41 C :   -0.014611
  42 C :   -0.076824
  43 S :    0.168680
  44 C :   -0.055922
  45 C :   -0.043098
  46 S :    0.177123
  47 C :   -0.003764
  48 C :   -0.110179
  49 S :    0.168851
  50 C :    0.040448
  51 C :   -0.093009
  52 C :    0.307359
  53 C :   -0.352532
  54 C :   -0.182252
  55 N :    0.146274
  56 C :   -0.202016
  57 N :    0.159686
  58 C :    0.045046
  59 C :    0.004862
  60 C :    0.160722
  61 O :   -0.162039
  62 C :   -0.086392
  63 C :    0.100566
  64 C :    0.097151
  65 C :   -0.085203
  66 C :   -0.019873
  67 C :    0.037160
  68 C :    0.038513
  69 C :   -0.019011
  70 H :   -0.011131
  71 H :   -0.004655
  72 H :   -0.010323
  73 H :   -0.004874
  74 H :   -0.005979
  75 H :   -0.016670
  76 H :    0.028072
  77 H :   -0.000724
  78 H :   -0.000239
  79 H :    0.005546
  80 H :    0.021639
  81 H :    0.015913
  82 H :   -0.015024
  83 H :   -0.007562
  84 H :   -0.009659
  85 H :   -0.005631
  86 H :   -0.005764
  87 H :   -0.018596
Sum of atomic charges:   -0.0000000

LOEWDIN ATOMIC CHARGES
----------------------
   0 C :    0.058911
   1 C :   -0.139598
   2 C :   -0.019440
   3 N :   -0.050971
   4 C :   -0.033809
   5 N :   -0.047993
   6 C :   -0.022294
   7 C :   -0.057057
   8 C :    0.032190
   9 C :   -0.009447
  10 C :   -0.005273
  11 C :    0.015380
  12 C :   -0.006846
  13 C :   -0.012818
  14 C :   -0.013612
  15 C :   -0.009265
  16 C :    0.083845
  17 O :   -0.143584
  18 C :   -0.095339
  19 C :    0.049767
  20 C :   -0.172493
  21 C :   -0.018488
  22 C :   -0.190653
  23 C :   -0.196361
  24 S :    0.458631
  25 C :   -0.215069
  26 C :   -0.183359
  27 S :    0.416880
  28 C :   -0.058943
  29 C :   -0.186675
  30 S :    0.472359
  31 C :   -0.130069
  32 N :   -0.105001
  33 C :   -0.210271
  34 C :   -0.209014
  35 S :    0.410963
  36 N :   -0.097531
  37 C :   -0.133205
  38 S :    0.411539
  39 C :   -0.186674
  40 C :   -0.036939
  41 C :   -0.179319
  42 C :   -0.217667
  43 S :    0.436718
  44 C :   -0.197952
  45 C :   -0.193930
  46 S :    0.420746
  47 C :   -0.014133
  48 C :   -0.172358
  49 S :    0.447296
  50 C :    0.046566
  51 C :   -0.096273
  52 C :    0.077120
  53 C :   -0.143444
  54 C :   -0.017062
  55 N :   -0.056113
  56 C :   -0.026342
  57 N :   -0.052504
  58 C :   -0.025953
  59 C :   -0.054587
  60 C :    0.088595
  61 O :   -0.146267
  62 C :    0.030672
  63 C :   -0.008541
  64 C :   -0.006401
  65 C :    0.019128
  66 C :   -0.005351
  67 C :   -0.013848
  68 C :   -0.012628
  69 C :   -0.010197
  70 H :    0.039309
  71 H :    0.038758
  72 H :    0.034237
  73 H :    0.033059
  74 H :    0.032463
  75 H :    0.031841
  76 H :    0.052052
  77 H :    0.041153
  78 H :    0.033736
  79 H :    0.043064
  80 H :    0.039404
  81 H :    0.043803
  82 H :    0.038110
  83 H :    0.039022
  84 H :    0.034685
  85 H :    0.032972
  86 H :    0.032530
  87 H :    0.031461

  Mayer bond orders larger than 0.100000
B(  0-C ,  1-C ) :   1.6647 B(  0-C ,  6-C ) :   1.0018 B(  0-C , 18-C ) :   1.0302
B(  1-C ,  2-C ) :   1.1396 B(  1-C ,  4-C ) :   1.1474 B(  2-C ,  3-N ) :   2.9937
B(  4-C ,  5-N ) :   3.0258 B(  6-C ,  7-C ) :   1.2150 B(  6-C , 11-C ) :   1.4592
B(  7-C ,  8-C ) :   1.4757 B(  7-C , 16-C ) :   0.9196 B(  8-C ,  9-C ) :   1.1848
B(  8-C , 70-H ) :   1.0164 B(  9-C , 10-C ) :   1.2573 B(  9-C , 15-C ) :   1.2454
B( 10-C , 11-C ) :   1.2044 B( 10-C , 12-C ) :   1.2402 B( 11-C , 71-H ) :   0.9954
B( 12-C , 13-C ) :   1.4898 B( 12-C , 72-H ) :   0.9982 B( 13-C , 14-C ) :   1.2603
B( 13-C , 73-H ) :   0.9889 B( 14-C , 15-C ) :   1.4880 B( 14-C , 74-H ) :   0.9895
B( 15-C , 75-H ) :   0.9982 B( 16-C , 17-O ) :   2.2746 B( 16-C , 18-C ) :   0.9354
B( 18-C , 19-C ) :   1.6603 B( 19-C , 20-C ) :   1.1266 B( 19-C , 76-H ) :   0.9491
B( 20-C , 21-C ) :   1.4622 B( 20-C , 24-S ) :   1.0876 B( 21-C , 22-C ) :   1.2871
B( 21-C , 77-H ) :   1.0027 B( 22-C , 23-C ) :   1.4343 B( 22-C , 27-S ) :   1.0444
B( 23-C , 24-S ) :   1.0901 B( 23-C , 25-C ) :   1.3208 B( 25-C , 26-C ) :   1.4471
B( 25-C , 30-S ) :   1.0700 B( 26-C , 27-S ) :   1.0592 B( 26-C , 28-C ) :   1.2909
B( 28-C , 29-C ) :   1.5091 B( 28-C , 78-H ) :   0.9903 B( 29-C , 30-S ) :   1.1034
B( 29-C , 31-C ) :   1.1497 B( 31-C , 32-N ) :   1.7232 B( 31-C , 35-S ) :   1.0884
B( 32-N , 33-C ) :   1.3997 B( 33-C , 34-C ) :   1.3027 B( 33-C , 38-S ) :   1.1016
B( 34-C , 35-S ) :   1.0950 B( 34-C , 36-N ) :   1.3983 B( 36-N , 37-C ) :   1.7337
B( 36-N , 38-S ) :   0.1005 B( 37-C , 38-S ) :   1.0854 B( 37-C , 39-C ) :   1.1084
B( 39-C , 40-C ) :   1.5255 B( 39-C , 43-S ) :   1.0978 B( 40-C , 41-C ) :   1.2503
B( 40-C , 79-H ) :   1.0133 B( 41-C , 42-C ) :   1.4447 B( 41-C , 46-S ) :   1.0556
B( 42-C , 43-S ) :   1.0781 B( 42-C , 44-C ) :   1.3119 B( 44-C , 45-C ) :   1.4099
B( 44-C , 49-S ) :   1.1057 B( 45-C , 46-S ) :   1.0463 B( 45-C , 47-C ) :   1.2906
B( 47-C , 48-C ) :   1.4524 B( 47-C , 80-H ) :   0.9775 B( 48-C , 49-S ) :   1.0662
B( 48-C , 50-C ) :   1.2215 B( 50-C , 51-C ) :   1.5926 B( 50-C , 81-H ) :   0.9171
B( 51-C , 52-C ) :   1.0739 B( 51-C , 60-C ) :   0.9410 B( 52-C , 53-C ) :   1.6294
B( 52-C , 58-C ) :   0.9841 B( 53-C , 54-C ) :   1.1472 B( 53-C , 56-C ) :   1.1361
B( 54-C , 55-N ) :   2.9678 B( 56-C , 57-N ) :   2.9907 B( 58-C , 59-C ) :   1.2180
B( 58-C , 65-C ) :   1.4504 B( 59-C , 60-C ) :   0.9535 B( 59-C , 62-C ) :   1.4678
B( 60-C , 61-O ) :   2.1638 B( 62-C , 63-C ) :   1.1771 B( 62-C , 82-H ) :   1.0170
B( 63-C , 64-C ) :   1.2587 B( 63-C , 69-C ) :   1.2429 B( 64-C , 65-C ) :   1.2029
B( 64-C , 66-C ) :   1.2408 B( 65-C , 83-H ) :   0.9909 B( 66-C , 67-C ) :   1.4875
B( 66-C , 84-H ) :   0.9975 B( 67-C , 68-C ) :   1.2612 B( 67-C , 85-H ) :   0.9884
B( 68-C , 69-C ) :   1.4874 B( 68-C , 86-H ) :   0.9890 B( 69-C , 87-H ) :   0.9983

-----------------------------------------------------------------------------
         ABSORPTION SPECTRUM VIA TRANSITION ELECTRIC DIPOLE MOMENTS
-----------------------------------------------------------------------------
State   Energy  Wavelength   fosc         T2         TX        TY        TZ
        (cm-1)    (nm)                  (au**2)     (au)      (au)      (au)
-----------------------------------------------------------------------------
   0   17747.5    563.5   2.536064807  47.04340   0.68264  -6.55322   1.90596
   1   20196.8    495.1   0.747391261  12.18266  -1.72181   2.42952   1.82084
   2   25254.7    396.0   0.134847991   1.75783  -0.49816   0.69041  -1.01636
   3   25611.4    390.5   0.110305888   1.41789  -0.31621   0.99531  -0.57206
   4   26419.8    378.5   0.079889262   0.99549  -0.21026   0.85357   0.47190
   5   26782.7    373.4   0.015026599   0.18471  -0.18141   0.16640  -0.35229
   6   27033.5    369.9   0.226167417   2.75425  -0.86250   1.41772   0.02037
   7   27247.0    367.0   0.122780825   1.48350  -0.25902  -0.33127   1.14310
   8   28224.5    354.3   0.038751201   0.45200  -0.32512   0.35729  -0.46759
   9   28324.1    353.1   0.037452065   0.43531  -0.24335  -0.37290   0.48686
  10   29068.7    344.0   0.090183928   1.02136  -0.03347   0.84955  -0.54636
  11   29352.9    340.7   0.129385792   1.45115   0.15809  -1.09816   0.46925
  12   29722.5    336.4   0.025085291   0.27785   0.11315  -0.10542   0.50392
  13   30006.7    333.3   0.114509286   1.25631   0.44880  -0.48336   0.90623
  14   30300.5    330.0   0.154006032   1.67326   0.30485  -0.34567   1.20865
  15   32488.8    307.8   0.026618779   0.26973   0.27034  -0.38328  -0.22303
  16   33011.7    302.9   0.031966599   0.31879   0.32034  -0.43617  -0.16101
  17   33376.5    299.6   0.051455142   0.50753   0.52739  -0.47227   0.07971
  18   33800.2    295.9   0.359212725   3.49871  -0.74389   0.89716  -1.46303
  19   34129.0    293.0   0.830820123   8.01418   0.98683  -0.97939   2.46599
  20   34251.3    292.0   0.203779750   1.95866  -0.89602   0.95633  -0.49115
  21   34527.7    289.6   0.024126800   0.23004  -0.01773  -0.04880  -0.47681
  22   34889.8    286.6   0.017305448   0.16329   0.16015  -0.19770   0.31394
  23   35054.1    285.3   0.300547557   2.82261  -0.14031   0.27377  -1.65166
  24   35226.0    283.9   0.068397568   0.63922   0.46857  -0.43946  -0.47596
  25   36456.1    274.3   0.046574639   0.42059   0.17761  -0.42268  -0.45867
  26   36719.9    272.3   0.005662982   0.05077  -0.12616   0.01372  -0.18619
  27   36890.8    271.1   0.009570840   0.08541  -0.15507   0.24566  -0.03180
  28   37424.4    267.2   0.069624799   0.61247  -0.05209   0.06537   0.77813
  29   37493.3    266.7   0.012358200   0.10851  -0.09278   0.09470  -0.30156
  30   37566.1    266.2   0.029654664   0.25988   0.06476  -0.46672  -0.19458
  31   37839.5    264.3   0.134527046   1.17041   0.15631  -0.08018  -1.06750
  32   37942.0    263.6   0.051199756   0.44425   0.00278   0.24633   0.61932
  33   38183.9    261.9   0.047139183   0.40642  -0.20307  -0.06719   0.60056
  34   38838.6    257.5   0.031462576   0.26669   0.05626   0.26470   0.43984
  35   38976.1    256.6   0.010530716   0.08895   0.05401  -0.12850  -0.26366
  36   39064.5    256.0   0.037365746   0.31490  -0.27957   0.14559  -0.46426
  37   39161.2    255.4   0.175278210   1.47349  -0.08694   0.67698   1.00381
  38   39223.6    254.9   0.025678025   0.21552   0.44476  -0.00580   0.13297
  39   39479.9    253.3   0.107754972   0.89854   0.21553   0.04312   0.92208
  40   40233.9    248.5   0.018592359   0.15213  -0.10605   0.04223   0.37296

FINAL SINGLE POINT ENERGY     -5728.834944618347

DIPOLE MOMENT
-------------
                                X             Y             Z
Electronic contribution:     16.78770     -16.48742     -18.07602
Nuclear contribution   :    -16.30805      16.22998      16.83618
                        -----------------------------------------
Total Dipole Moment    :      0.47965      -0.25744      -1.23984
                        -----------------------------------------
Magnitude (a.u.)       :      1.35408
Magnitude (Debye)      :      3.44181

Rotational constants in cm-1:     0.001837     0.000155     0.000145
Rotational constants in MHz :    55.079895     4.633777     4.359832

                             ****ORCA TERMINATED NORMALLY****
TOTAL RUN TIME: 0 days 0 hours 7 minutes 52 seconds 507 msec
