                         Program Version 4.2.0 -  RELEASE  -
|  1> # ORCA input file
|  2> # SCF done       -216.308348856468          0.000469690321
|  3> ! CAM-B3LYP def2-SVP def2/J RIJCOSX Grid4 TightSCF
|  4> %maxcore 5000
|  5> %tddft
|  6>     Mode sTDDFT
|  7>     Ethresh 5.0
|  8>     maxcore 5000
|  9> end
| 10>
| 11> %pal
| 12>   nprocs 6
| 13>   end
| 14> * xyz 0 1
| 15>    C       -2.42371         0.81342         1.54199
| 16>    C       -1.19594         0.47415         0.76816
| 17>    N       -1.19297         0.21365        -0.51984
| 18>    S        0.32772        -0.09761        -0.99938
| 19>    N        1.02737         0.09911         0.45279
| 20>    C        0.10527         0.40626         1.33591
| 21>    C        0.38557         0.61592         2.78787
| 22>    C       -0.72392         1.44287         3.36228
| 23>    C       -2.02633         1.50792         2.79917
| 24>    N       -2.83676         2.26554         3.50331
| 25>    S       -2.03694         2.85485         4.78882
| 26>    N       -0.61161         2.14850         4.46388
| 27>    C        0.39682        -0.70637         3.50479
| 28>    C       -0.24795        -1.84105         3.15267
| 29>    C       -0.07092        -2.90493         4.08274
| 30>    C       -0.56296        -4.21839         3.99260
| 31>    C       -1.27936        -4.67260         2.81706
| 32>    C       -0.98646        -4.43055         1.50450
| 33>    C       -1.89516        -5.03105         0.60948
| 34>    C       -2.88566        -5.72649         1.23082
| 35>    S       -2.70678        -5.66097         2.95472
| 36>    C       -4.01242        -6.48086         0.62130
| 37>    C       -0.30777        -5.05071         5.07764
| 38>    C        0.44698        -4.64224         6.20459
| 39>    C        0.99695        -3.34473         6.26537
| 40>    C        0.69951        -2.50239         5.19753
| 41>    S        1.23837        -0.85076         5.02076
| 42>    C        1.84754        -2.90455         7.35110
| 43>    C        1.90739        -1.66990         7.93475
| 44>    C        2.89970        -1.56684         8.92970
| 45>    C        3.61501        -2.71067         9.10550
| 46>    S        3.05748        -3.95789         8.03879
| 47>    C        4.73680        -2.97123        10.04490
| 48>    C        0.52732        -5.67066         7.17294
| 49>    C       -0.09090        -6.83059         6.79897
| 50>    S       -0.81593        -6.71072         5.21534
| 51>    C       -0.19627        -8.05165         7.54705
| 52>    C        0.17848        -8.16985         8.87334
| 53>    C        0.05594        -9.37161         9.56955
| 54>    F        0.44967        -9.34296        10.85999
| 55>    C       -0.42055       -10.56108         9.03482
| 56>    C       -0.80735       -10.46972         7.66886
| 57>    C       -0.70812        -9.22935         6.94500
| 58>    N       -1.13633        -9.34501         5.69189
| 59>    S       -1.62035       -10.85524         5.44107
| 60>    N       -1.30758       -11.43957         6.90494
| 61>    C       -0.54285       -11.78867         9.77280
| 62>    C       -0.79208       -13.02555         9.24963
| 63>    C       -0.89249       -14.04857        10.22034
| 64>    C       -1.10474       -15.42702        10.01158
| 65>    C       -1.31136       -16.00047         8.69815
| 66>    C       -0.85907       -17.20265         8.22865
| 67>    C       -1.27538       -17.48310         6.91264
| 68>    C       -2.05717       -16.50909         6.37271
| 69>    S       -2.28776       -15.20640         7.49185
| 70>    C       -2.66991       -16.45566         5.01932
| 71>    C       -1.12014       -16.22250        11.15300
| 72>    C       -0.95166       -15.71855        12.46258
| 73>    C       -0.71894       -14.34787        12.66743
| 74>    C       -0.70429       -13.54543        11.53086
| 75>    S       -0.40427       -11.83403        11.51783
| 76>    C       -0.50209       -13.81113        13.99667
| 77>    C        0.27853       -14.31833        14.99602
| 78>    C        0.26182       -13.53447        16.16767
| 79>    C       -0.53443       -12.43557        16.07215
| 80>    S       -1.27735       -12.33807        14.50895
| 81>    C       -0.80541       -11.39405        17.09745
| 82>    C       -1.10677       -16.73729        13.44810
| 83>    C       -1.36529       -17.95470        12.92639
| 84>    S       -1.42478       -17.94094        11.18093
| 85>    C       -1.54266       -19.25395        13.65932
| 86>    C       -0.32435       -20.09512        13.43231
| 87>    N        0.78374       -19.97069        14.12563
| 88>    S        1.88631       -21.01810        13.55305
| 89>    N        0.95002       -21.66140        12.39136
| 90>    C       -0.22903       -21.08243        12.41466
| 91>    C       -1.34590       -21.43161        11.49261
| 92>    C       -2.63018       -20.98767        12.10415
| 93>    C       -2.72234       -19.99621        13.11797
| 94>    N       -3.95764       -19.78183        13.50777
| 95>    S       -4.95361       -20.74974        12.66578
| 96>    N       -3.80437       -21.47779        11.77764
| 97>    H       -2.97094        -0.10464         1.78769
| 98>    H       -3.09690         1.43614         0.94973
| 99>    H        1.34915         1.11215         2.93609
|100>    H       -0.84501        -1.93761         2.26416
|101>    H       -0.11999        -3.87738         1.18727
|102>    H       -1.81203        -4.94973        -0.46008
|103>    H       -4.96951        -6.08138         0.95619
|104>    H       -3.97088        -7.53061         0.91105
|105>    H       -3.96282        -6.41268        -0.46289
|106>    H        1.23756        -0.86662         7.68702
|107>    H        3.07635        -0.66956         9.49589
|108>    H        4.88938        -2.10873        10.68913
|109>    H        5.65918        -3.16666         9.49752
|110>    H        4.52777        -3.84291        10.66410
|111>    H        1.02559        -5.55076         8.11626
|112>    H        0.56984        -7.32365         9.41405
|113>    H       -0.88913       -13.18213         8.19294
|114>    H       -0.21199       -17.85013         8.79257
|115>    H       -1.00149       -18.37947         6.38473
|116>    H       -2.43600       -17.36453         4.46991
|117>    H       -2.29179       -15.59943         4.46052
|118>    H       -3.75267       -16.35494         5.08964
|119>    H        0.87838       -15.20394        14.88190
|120>    H        0.82510       -13.77961        17.05086
|121>    H       -0.25507       -11.61616        18.00863
|122>    H       -1.86925       -11.35102        17.33023
|123>    H       -0.50482       -10.41161        16.73432
|124>    H       -1.05015       -16.54994        14.50430
|125>    H       -1.67039       -19.03577        14.72334
|126>    H       -1.36117       -22.50265        11.28386
|127>    H       -1.20389       -20.91604        10.53540
|128> *
|129>
|130>                          ****END OF INPUT****

CARTESIAN COORDINATES (ANGSTROEM)
---------------------------------
  C     -2.423710    0.813420    1.541990
  C     -1.195940    0.474150    0.768160
  N     -1.192970    0.213650   -0.519840
  S      0.327720   -0.097610   -0.999380
  N      1.027370    0.099110    0.452790
  C      0.105270    0.406260    1.335910
  C      0.385570    0.615920    2.787870
  C     -0.723920    1.442870    3.362280
  C     -2.026330    1.507920    2.799170
  N     -2.836760    2.265540    3.503310
  S     -2.036940    2.854850    4.788820
  N     -0.611610    2.148500    4.463880
  C      0.396820   -0.706370    3.504790
  C     -0.247950   -1.841050    3.152670
  C     -0.070920   -2.904930    4.082740
  C     -0.562960   -4.218390    3.992600
  C     -1.279360   -4.672600    2.817060
  C     -0.986460   -4.430550    1.504500
  C     -1.895160   -5.031050    0.609480
  C     -2.885660   -5.726490    1.230820
  S     -2.706780   -5.660970    2.954720
  C     -4.012420   -6.480860    0.621300
  C     -0.307770   -5.050710    5.077640
  C      0.446980   -4.642240    6.204590
  C      0.996950   -3.344730    6.265370
  C      0.699510   -2.502390    5.197530
  S      1.238370   -0.850760    5.020760
  C      1.847540   -2.904550    7.351100
  C      1.907390   -1.669900    7.934750
  C      2.899700   -1.566840    8.929700
  C      3.615010   -2.710670    9.105500
  S      3.057480   -3.957890    8.038790
  C      4.736800   -2.971230   10.044900
  C      0.527320   -5.670660    7.172940
  C     -0.090900   -6.830590    6.798970
  S     -0.815930   -6.710720    5.215340
  C     -0.196270   -8.051650    7.547050
  C      0.178480   -8.169850    8.873340
  C      0.055940   -9.371610    9.569550
  F      0.449670   -9.342960   10.859990
  C     -0.420550  -10.561080    9.034820
  C     -0.807350  -10.469720    7.668860
  C     -0.708120   -9.229350    6.945000
  N     -1.136330   -9.345010    5.691890
  S     -1.620350  -10.855240    5.441070
  N     -1.307580  -11.439570    6.904940
  C     -0.542850  -11.788670    9.772800
  C     -0.792080  -13.025550    9.249630
  C     -0.892490  -14.048570   10.220340
  C     -1.104740  -15.427020   10.011580
  C     -1.311360  -16.000470    8.698150
  C     -0.859070  -17.202650    8.228650
  C     -1.275380  -17.483100    6.912640
  C     -2.057170  -16.509090    6.372710
  S     -2.287760  -15.206400    7.491850
  C     -2.669910  -16.455660    5.019320
  C     -1.120140  -16.222500   11.153000
  C     -0.951660  -15.718550   12.462580
  C     -0.718940  -14.347870   12.667430
  C     -0.704290  -13.545430   11.530860
  S     -0.404270  -11.834030   11.517830
  C     -0.502090  -13.811130   13.996670
  C      0.278530  -14.318330   14.996020
  C      0.261820  -13.534470   16.167670
  C     -0.534430  -12.435570   16.072150
  S     -1.277350  -12.338070   14.508950
  C     -0.805410  -11.394050   17.097450
  C     -1.106770  -16.737290   13.448100
  C     -1.365290  -17.954700   12.926390
  S     -1.424780  -17.940940   11.180930
  C     -1.542660  -19.253950   13.659320
  C     -0.324350  -20.095120   13.432310
  N      0.783740  -19.970690   14.125630
  S      1.886310  -21.018100   13.553050
  N      0.950020  -21.661400   12.391360
  C     -0.229030  -21.082430   12.414660
  C     -1.345900  -21.431610   11.492610
  C     -2.630180  -20.987670   12.104150
  C     -2.722340  -19.996210   13.117970
  N     -3.957640  -19.781830   13.507770
  S     -4.953610  -20.749740   12.665780
  N     -3.804370  -21.477790   11.777640
  H     -2.970940   -0.104640    1.787690
  H     -3.096900    1.436140    0.949730
  H      1.349150    1.112150    2.936090
  H     -0.845010   -1.937610    2.264160
  H     -0.119990   -3.877380    1.187270
  H     -1.812030   -4.949730   -0.460080
  H     -4.969510   -6.081380    0.956190
  H     -3.970880   -7.530610    0.911050
  H     -3.962820   -6.412680   -0.462890
  H      1.237560   -0.866620    7.687020
  H      3.076350   -0.669560    9.495890
  H      4.889380   -2.108730   10.689130
  H      5.659180   -3.166660    9.497520
  H      4.527770   -3.842910   10.664100
  H      1.025590   -5.550760    8.116260
  H      0.569840   -7.323650    9.414050
  H     -0.889130  -13.182130    8.192940
  H     -0.211990  -17.850130    8.792570
  H     -1.001490  -18.379470    6.384730
  H     -2.436000  -17.364530    4.469910
  H     -2.291790  -15.599430    4.460520
  H     -3.752670  -16.354940    5.089640
  H      0.878380  -15.203940   14.881900
  H      0.825100  -13.779610   17.050860
  H     -0.255070  -11.616160   18.008630
  H     -1.869250  -11.351020   17.330230
  H     -0.504820  -10.411610   16.734320
  H     -1.050150  -16.549940   14.504300
  H     -1.670390  -19.035770   14.723340
  H     -1.361170  -22.502650   11.283860
  H     -1.203890  -20.916040   10.535400

 Total Charge           Charge          ....    0
 Multiplicity           Mult            ....    1
 Number of Electrons    NEL             ....  666
 Basis Dimension        Dim             .... 1355

ORBITAL ENERGIES
----------------

  NO   OCC          E(Eh)            E(eV)
   0   2.0000     -89.025997     -2422.5205
   1   2.0000     -89.007003     -2422.0037
   2   2.0000     -89.003828     -2421.9173
   3   2.0000     -89.001345     -2421.8497
   4   2.0000     -89.001299     -2421.8485
   5   2.0000     -88.944779     -2420.3105
   6   2.0000     -88.944396     -2420.3001
   7   2.0000     -88.944077     -2420.2914
   8   2.0000     -88.942690     -2420.2536
   9   2.0000     -88.941361     -2420.2175
  10   2.0000     -88.939296     -2420.1613
  11   2.0000     -88.938908     -2420.1507
  12   2.0000     -88.936882     -2420.0956
  13   2.0000     -24.790198      -674.5756
  14   2.0000     -14.441761      -392.9803
  15   2.0000     -14.438121      -392.8812
  16   2.0000     -14.435767      -392.8172
  17   2.0000     -14.434590      -392.7852
  18   2.0000     -14.433090      -392.7443
  19   2.0000     -14.432087      -392.7171
  20   2.0000     -14.430790      -392.6818
  21   2.0000     -14.430415      -392.6716
  22   2.0000     -14.429540      -392.6478
  23   2.0000     -14.429127      -392.6365
  24   2.0000     -10.370446      -282.1942
  25   2.0000     -10.329267      -281.0736
  26   2.0000     -10.325902      -280.9821
  27   2.0000     -10.325872      -280.9813
  28   2.0000     -10.325493      -280.9709
  29   2.0000     -10.324047      -280.9316
  30   2.0000     -10.323548      -280.9180
  31   2.0000     -10.321050      -280.8500
  32   2.0000     -10.320768      -280.8424
  33   2.0000     -10.320748      -280.8418
  34   2.0000     -10.320123      -280.8248
  35   2.0000     -10.310690      -280.5681
  36   2.0000     -10.307688      -280.4864
  37   2.0000     -10.306661      -280.4585
  38   2.0000     -10.304642      -280.4036
  39   2.0000     -10.301835      -280.3272
  40   2.0000     -10.301453      -280.3168
  41   2.0000     -10.300463      -280.2898
  42   2.0000     -10.297897      -280.2200
  43   2.0000     -10.295664      -280.1593
  44   2.0000     -10.295368      -280.1512
  45   2.0000     -10.293860      -280.1102
  46   2.0000     -10.293066      -280.0886
  47   2.0000     -10.292606      -280.0760
  48   2.0000     -10.291933      -280.0577
  49   2.0000     -10.290964      -280.0314
  50   2.0000     -10.290855      -280.0284
  51   2.0000     -10.290628      -280.0222
  52   2.0000     -10.290475      -280.0181
  53   2.0000     -10.289715      -279.9974
  54   2.0000     -10.289294      -279.9859
  55   2.0000     -10.288959      -279.9768
  56   2.0000     -10.288838      -279.9735
  57   2.0000     -10.286919      -279.9213
  58   2.0000     -10.286692      -279.9151
  59   2.0000     -10.286249      -279.9031
  60   2.0000     -10.285567      -279.8845
  61   2.0000     -10.283384      -279.8251
  62   2.0000     -10.279234      -279.7122
  63   2.0000     -10.278046      -279.6799
  64   2.0000     -10.276275      -279.6316
  65   2.0000     -10.273081      -279.5448
  66   2.0000     -10.271752      -279.5086
  67   2.0000     -10.271219      -279.4941
  68   2.0000     -10.270986      -279.4877
  69   2.0000     -10.270582      -279.4767
  70   2.0000     -10.268962      -279.4327
  71   2.0000     -10.267401      -279.3902
  72   2.0000     -10.264890      -279.3219
  73   2.0000     -10.263985      -279.2972
  74   2.0000     -10.263561      -279.2857
  75   2.0000     -10.261249      -279.2228
  76   2.0000     -10.260410      -279.2000
  77   2.0000     -10.259843      -279.1845
  78   2.0000     -10.259708      -279.1808
  79   2.0000     -10.258215      -279.1402
  80   2.0000     -10.257724      -279.1269
  81   2.0000     -10.255971      -279.0792
  82   2.0000      -8.117545      -220.8896
  83   2.0000      -8.099871      -220.4087
  84   2.0000      -8.096745      -220.3236
  85   2.0000      -8.094307      -220.2573
  86   2.0000      -8.094218      -220.2549
  87   2.0000      -8.040582      -218.7954
  88   2.0000      -8.039798      -218.7740
  89   2.0000      -8.039142      -218.7562
  90   2.0000      -8.038611      -218.7417
  91   2.0000      -8.036924      -218.6958
  92   2.0000      -8.034892      -218.6405
  93   2.0000      -8.033766      -218.6099
  94   2.0000      -8.031988      -218.5615
  95   2.0000      -6.088785      -165.6843
  96   2.0000      -6.081072      -165.4744
  97   2.0000      -6.079906      -165.4427
  98   2.0000      -6.071473      -165.2132
  99   2.0000      -6.068383      -165.1291
 100   2.0000      -6.065966      -165.0633
 101   2.0000      -6.065864      -165.0606
 102   2.0000      -6.063876      -165.0065
 103   2.0000      -6.061086      -164.9305
 104   2.0000      -6.060797      -164.9227
 105   2.0000      -6.058320      -164.8553
 106   2.0000      -6.058204      -164.8521
 107   2.0000      -6.057851      -164.8425
 108   2.0000      -6.055409      -164.7760
 109   2.0000      -6.055404      -164.7759
 110   2.0000      -6.009863      -163.5367
 111   2.0000      -6.009437      -163.5251
 112   2.0000      -6.008828      -163.5085
 113   2.0000      -6.007847      -163.4818
 114   2.0000      -6.006204      -163.4371
 115   2.0000      -6.005634      -163.4216
 116   2.0000      -6.005230      -163.4106
 117   2.0000      -6.004648      -163.3948
 118   2.0000      -6.004145      -163.3811
 119   2.0000      -6.003606      -163.3664
 120   2.0000      -6.003504      -163.3637
 121   2.0000      -6.002792      -163.3443
 122   2.0000      -6.001993      -163.3225
 123   2.0000      -6.001706      -163.3147
 124   2.0000      -6.001189      -163.3007
 125   2.0000      -6.000887      -163.2924
 126   2.0000      -6.000568      -163.2838
 127   2.0000      -5.999871      -163.2648
 128   2.0000      -5.999166      -163.2456
 129   2.0000      -5.999066      -163.2429
 130   2.0000      -5.997333      -163.1957
 131   2.0000      -5.997155      -163.1909
 132   2.0000      -5.995125      -163.1357
 133   2.0000      -5.993330      -163.0868
 134   2.0000      -1.304445       -35.4958
 135   2.0000      -1.127286       -30.6750
 136   2.0000      -1.120057       -30.4783
 137   2.0000      -1.115737       -30.3608
 138   2.0000      -1.114743       -30.3337
 139   2.0000      -1.110924       -30.2298
 140   2.0000      -1.002881       -27.2898
 141   2.0000      -0.999280       -27.1918
 142   2.0000      -0.988353       -26.8945
 143   2.0000      -0.983222       -26.7548
 144   2.0000      -0.979946       -26.6657
 145   2.0000      -0.975836       -26.5539
 146   2.0000      -0.974537       -26.5185
 147   2.0000      -0.971435       -26.4341
 148   2.0000      -0.969794       -26.3894
 149   2.0000      -0.968396       -26.3514
 150   2.0000      -0.966565       -26.3016
 151   2.0000      -0.964904       -26.2564
 152   2.0000      -0.964212       -26.2375
 153   2.0000      -0.958003       -26.0686
 154   2.0000      -0.944353       -25.6971
 155   2.0000      -0.940755       -25.5993
 156   2.0000      -0.908739       -24.7281
 157   2.0000      -0.899432       -24.4748
 158   2.0000      -0.894596       -24.3432
 159   2.0000      -0.891482       -24.2585
 160   2.0000      -0.871441       -23.7131
 161   2.0000      -0.861367       -23.4390
 162   2.0000      -0.858390       -23.3580
 163   2.0000      -0.855097       -23.2684
 164   2.0000      -0.854097       -23.2412
 165   2.0000      -0.851751       -23.1773
 166   2.0000      -0.846743       -23.0411
 167   2.0000      -0.841509       -22.8986
 168   2.0000      -0.837595       -22.7921
 169   2.0000      -0.834389       -22.7049
 170   2.0000      -0.829512       -22.5722
 171   2.0000      -0.825889       -22.4736
 172   2.0000      -0.817417       -22.2430
 173   2.0000      -0.814173       -22.1548
 174   2.0000      -0.809951       -22.0399
 175   2.0000      -0.807531       -21.9740
 176   2.0000      -0.805926       -21.9303
 177   2.0000      -0.790783       -21.5183
 178   2.0000      -0.787256       -21.4223
 179   2.0000      -0.783744       -21.3268
 180   2.0000      -0.782218       -21.2852
 181   2.0000      -0.770277       -20.9603
 182   2.0000      -0.766944       -20.8696
 183   2.0000      -0.763608       -20.7788
 184   2.0000      -0.749167       -20.3859
 185   2.0000      -0.738916       -20.1069
 186   2.0000      -0.735813       -20.0225
 187   2.0000      -0.721314       -19.6280
 188   2.0000      -0.715002       -19.4562
 189   2.0000      -0.711295       -19.3553
 190   2.0000      -0.703660       -19.1476
 191   2.0000      -0.692967       -18.8566
 192   2.0000      -0.685334       -18.6489
 193   2.0000      -0.682846       -18.5812
 194   2.0000      -0.680632       -18.5209
 195   2.0000      -0.669061       -18.2061
 196   2.0000      -0.663764       -18.0619
 197   2.0000      -0.660285       -17.9673
 198   2.0000      -0.659734       -17.9523
 199   2.0000      -0.655799       -17.8452
 200   2.0000      -0.644163       -17.5286
 201   2.0000      -0.636683       -17.3250
 202   2.0000      -0.633338       -17.2340
 203   2.0000      -0.631474       -17.1833
 204   2.0000      -0.628785       -17.1101
 205   2.0000      -0.628209       -17.0944
 206   2.0000      -0.621092       -16.9008
 207   2.0000      -0.618680       -16.8351
 208   2.0000      -0.616227       -16.7684
 209   2.0000      -0.614528       -16.7222
 210   2.0000      -0.611777       -16.6473
 211   2.0000      -0.608507       -16.5583
 212   2.0000      -0.607512       -16.5312
 213   2.0000      -0.604064       -16.4374
 214   2.0000      -0.601761       -16.3747
 215   2.0000      -0.596225       -16.2241
 216   2.0000      -0.593565       -16.1517
 217   2.0000      -0.591609       -16.0985
 218   2.0000      -0.586817       -15.9681
 219   2.0000      -0.577297       -15.7091
 220   2.0000      -0.575504       -15.6603
 221   2.0000      -0.574630       -15.6365
 222   2.0000      -0.569090       -15.4857
 223   2.0000      -0.566711       -15.4210
 224   2.0000      -0.566267       -15.4089
 225   2.0000      -0.562172       -15.2975
 226   2.0000      -0.554670       -15.0933
 227   2.0000      -0.548160       -14.9162
 228   2.0000      -0.544810       -14.8250
 229   2.0000      -0.543767       -14.7967
 230   2.0000      -0.531952       -14.4752
 231   2.0000      -0.528912       -14.3924
 232   2.0000      -0.526719       -14.3328
 233   2.0000      -0.525340       -14.2952
 234   2.0000      -0.524867       -14.2824
 235   2.0000      -0.522397       -14.2152
 236   2.0000      -0.520504       -14.1636
 237   2.0000      -0.518222       -14.1015
 238   2.0000      -0.513283       -13.9671
 239   2.0000      -0.512239       -13.9387
 240   2.0000      -0.510073       -13.8798
 241   2.0000      -0.506787       -13.7904
 242   2.0000      -0.506729       -13.7888
 243   2.0000      -0.505711       -13.7611
 244   2.0000      -0.505042       -13.7429
 245   2.0000      -0.504758       -13.7352
 246   2.0000      -0.504304       -13.7228
 247   2.0000      -0.501621       -13.6498
 248   2.0000      -0.501394       -13.6436
 249   2.0000      -0.499503       -13.5922
 250   2.0000      -0.496420       -13.5083
 251   2.0000      -0.495433       -13.4814
 252   2.0000      -0.493149       -13.4193
 253   2.0000      -0.488481       -13.2922
 254   2.0000      -0.487304       -13.2602
 255   2.0000      -0.486203       -13.2303
 256   2.0000      -0.485134       -13.2012
 257   2.0000      -0.478717       -13.0265
 258   2.0000      -0.475839       -12.9482
 259   2.0000      -0.472509       -12.8576
 260   2.0000      -0.470865       -12.8129
 261   2.0000      -0.468440       -12.7469
 262   2.0000      -0.467235       -12.7141
 263   2.0000      -0.465837       -12.6761
 264   2.0000      -0.461799       -12.5662
 265   2.0000      -0.460685       -12.5359
 266   2.0000      -0.460022       -12.5178
 267   2.0000      -0.458496       -12.4763
 268   2.0000      -0.457859       -12.4590
 269   2.0000      -0.455046       -12.3824
 270   2.0000      -0.453125       -12.3302
 271   2.0000      -0.451572       -12.2879
 272   2.0000      -0.449324       -12.2267
 273   2.0000      -0.448895       -12.2151
 274   2.0000      -0.447561       -12.1787
 275   2.0000      -0.446731       -12.1562
 276   2.0000      -0.444684       -12.1005
 277   2.0000      -0.443166       -12.0592
 278   2.0000      -0.440194       -11.9783
 279   2.0000      -0.439176       -11.9506
 280   2.0000      -0.437468       -11.9041
 281   2.0000      -0.433956       -11.8085
 282   2.0000      -0.432229       -11.7615
 283   2.0000      -0.428688       -11.6652
 284   2.0000      -0.424251       -11.5445
 285   2.0000      -0.422025       -11.4839
 286   2.0000      -0.420915       -11.4537
 287   2.0000      -0.417118       -11.3504
 288   2.0000      -0.412611       -11.2277
 289   2.0000      -0.407984       -11.1018
 290   2.0000      -0.405582       -11.0364
 291   2.0000      -0.402169       -10.9436
 292   2.0000      -0.401994       -10.9388
 293   2.0000      -0.400926       -10.9097
 294   2.0000      -0.400486       -10.8978
 295   2.0000      -0.399368       -10.8673
 296   2.0000      -0.389991       -10.6122
 297   2.0000      -0.389669       -10.6034
 298   2.0000      -0.386506       -10.5174
 299   2.0000      -0.384421       -10.4606
 300   2.0000      -0.383821       -10.4443
 301   2.0000      -0.382429       -10.4064
 302   2.0000      -0.375057       -10.2058
 303   2.0000      -0.372800       -10.1444
 304   2.0000      -0.370423       -10.0797
 305   2.0000      -0.369436       -10.0529
 306   2.0000      -0.367932       -10.0119
 307   2.0000      -0.366383        -9.9698
 308   2.0000      -0.363275        -9.8852
 309   2.0000      -0.360102        -9.7989
 310   2.0000      -0.359224        -9.7750
 311   2.0000      -0.356560        -9.7025
 312   2.0000      -0.355457        -9.6725
 313   2.0000      -0.337269        -9.1776
 314   2.0000      -0.335092        -9.1183
 315   2.0000      -0.332056        -9.0357
 316   2.0000      -0.328742        -8.9455
 317   2.0000      -0.325158        -8.8480
 318   2.0000      -0.323946        -8.8150
 319   2.0000      -0.315133        -8.5752
 320   2.0000      -0.313140        -8.5210
 321   2.0000      -0.309753        -8.4288
 322   2.0000      -0.309417        -8.4197
 323   2.0000      -0.308334        -8.3902
 324   2.0000      -0.305666        -8.3176
 325   2.0000      -0.295195        -8.0327
 326   2.0000      -0.291404        -7.9295
 327   2.0000      -0.288350        -7.8464
 328   2.0000      -0.286017        -7.7829
 329   2.0000      -0.283992        -7.7278
 330   2.0000      -0.258462        -7.0331
 331   2.0000      -0.237230        -6.4554
 332   2.0000      -0.229037        -6.2324
 333   0.0000      -0.076085        -2.0704
 334   0.0000      -0.028501        -0.7755
 335   0.0000      -0.024326        -0.6619
 336   0.0000      -0.023445        -0.6380
 337   0.0000      -0.021844        -0.5944

MULLIKEN ATOMIC CHARGES
-----------------------
   0 C :    0.405765
   1 C :   -0.191845
   2 N :   -0.271007
   3 S :    0.448881
   4 N :   -0.255255
   5 C :   -0.124246
   6 C :    0.281774
   7 C :   -0.061144
   8 C :   -0.192791
   9 N :   -0.271116
  10 S :    0.450349
  11 N :   -0.268949
  12 C :   -0.107123
  13 C :   -0.051616
  14 C :    0.092429
  15 C :    0.129544
  16 C :   -0.219435
  17 C :    0.026923
  18 C :    0.012096
  19 C :   -0.211663
  20 S :    0.128891
  21 C :    0.123432
  22 C :   -0.130222
  23 C :    0.087874
  24 C :    0.142553
  25 C :   -0.151462
  26 S :    0.134975
  27 C :   -0.216899
  28 C :    0.024685
  29 C :    0.020260
  30 C :   -0.210338
  31 S :    0.115375
  32 C :    0.125047
  33 C :   -0.070070
  34 C :   -0.069744
  35 S :    0.147853
  36 C :    0.168799
  37 C :   -0.122667
  38 C :    0.196399
  39 F :   -0.185187
  40 C :    0.086996
  41 C :    0.002755
  42 C :   -0.006533
  43 N :   -0.299780
  44 S :    0.519149
  45 N :   -0.288168
  46 C :   -0.093696
  47 C :   -0.077766
  48 C :    0.083966
  49 C :    0.151758
  50 C :   -0.212106
  51 C :    0.017417
  52 C :    0.023766
  53 C :   -0.214652
  54 S :    0.128038
  55 C :    0.124556
  56 C :   -0.140272
  57 C :    0.074611
  58 C :    0.126373
  59 C :   -0.134617
  60 S :    0.132250
  61 C :   -0.217197
  62 C :    0.028618
  63 C :    0.011910
  64 C :   -0.210621
  65 S :    0.129988
  66 C :    0.126485
  67 C :   -0.040257
  68 C :   -0.052033
  69 S :    0.080800
  70 C :    0.220216
  71 C :   -0.058694
  72 N :   -0.269150
  73 S :    0.448198
  74 N :   -0.274671
  75 C :   -0.190664
  76 C :    0.411541
  77 C :   -0.189316
  78 C :   -0.091665
  79 N :   -0.256526
  80 S :    0.450316
  81 N :   -0.270982
  82 H :    0.049607
  83 H :    0.036644
  84 H :    0.019780
  85 H :   -0.019624
  86 H :   -0.011777
  87 H :   -0.024967
  88 H :    0.032308
  89 H :    0.031480
  90 H :    0.019239
  91 H :   -0.004067
  92 H :   -0.025423
  93 H :    0.019298
  94 H :    0.035881
  95 H :    0.029107
  96 H :   -0.019672
  97 H :   -0.011380
  98 H :    0.004996
  99 H :   -0.011794
 100 H :   -0.028397
 101 H :    0.017788
 102 H :    0.028496
 103 H :    0.033245
 104 H :   -0.010104
 105 H :   -0.027130
 106 H :    0.016344
 107 H :    0.032446
 108 H :    0.032130
 109 H :   -0.017802
 110 H :    0.017658
 111 H :    0.034142
 112 H :    0.050086
Sum of atomic charges:   -0.0000000

LOEWDIN ATOMIC CHARGES
----------------------
   0 C :   -0.022540
   1 C :   -0.060326
   2 N :   -0.271159
   3 S :    0.581595
   4 N :   -0.263156
   5 C :   -0.053832
   6 C :   -0.031808
   7 C :   -0.053963
   8 C :   -0.056424
   9 N :   -0.270731
  10 S :    0.581874
  11 N :   -0.271211
  12 C :   -0.147085
  13 C :   -0.068140
  14 C :   -0.034566
  15 C :   -0.056638
  16 C :   -0.180151
  17 C :   -0.058373
  18 C :   -0.078638
  19 C :   -0.174409
  20 S :    0.422903
  21 C :   -0.060054
  22 C :   -0.155686
  23 C :   -0.045562
  24 C :   -0.051254
  25 C :   -0.145941
  26 S :    0.423790
  27 C :   -0.177924
  28 C :   -0.063052
  29 C :   -0.075181
  30 C :   -0.173032
  31 S :    0.429030
  32 C :   -0.059470
  33 C :   -0.052704
  34 C :   -0.157489
  35 S :    0.437912
  36 C :   -0.027598
  37 C :   -0.029665
  38 C :    0.091422
  39 F :   -0.060770
  40 C :   -0.073976
  41 C :   -0.031141
  42 C :   -0.052645
  43 N :   -0.287929
  44 S :    0.644522
  45 N :   -0.278204
  46 C :   -0.158331
  47 C :   -0.051367
  48 C :   -0.045356
  49 C :   -0.050280
  50 C :   -0.177168
  51 C :   -0.066757
  52 C :   -0.077244
  53 C :   -0.175035
  54 S :    0.440667
  55 C :   -0.059956
  56 C :   -0.144651
  57 C :   -0.035164
  58 C :   -0.055888
  59 C :   -0.153507
  60 S :    0.409903
  61 C :   -0.180932
  62 C :   -0.056678
  63 C :   -0.078460
  64 C :   -0.173666
  65 S :    0.423203
  66 C :   -0.059737
  67 C :   -0.054595
  68 C :   -0.141380
  69 S :    0.403394
  70 C :   -0.030414
  71 C :   -0.056531
  72 N :   -0.268459
  73 S :    0.580023
  74 N :   -0.271569
  75 C :   -0.058878
  76 C :   -0.026045
  77 C :   -0.061777
  78 C :   -0.064328
  79 N :   -0.263273
  80 S :    0.583669
  81 N :   -0.270256
  82 H :    0.059395
  83 H :    0.057609
  84 H :    0.055194
  85 H :    0.027811
  86 H :    0.029572
  87 H :    0.026420
  88 H :    0.036455
  89 H :    0.036335
  90 H :    0.037368
  91 H :    0.023417
  92 H :    0.027062
  93 H :    0.037737
  94 H :    0.038075
  95 H :    0.035618
  96 H :    0.014562
  97 H :    0.042692
  98 H :    0.015233
  99 H :    0.020769
 100 H :    0.025721
 101 H :    0.037277
 102 H :    0.034962
 103 H :    0.036576
 104 H :    0.030513
 105 H :    0.025827
 106 H :    0.036598
 107 H :    0.036596
 108 H :    0.036650
 109 H :    0.032862
 110 H :    0.060495
 111 H :    0.056379
 112 H :    0.054423

  Mayer bond orders larger than 0.100000
B(  0-C ,  1-C ) :   1.0173 B(  0-C ,  8-C ) :   1.0202 B(  0-C , 82-H ) :   0.8614
B(  0-C , 83-H ) :   0.8776 B(  1-C ,  2-N ) :   1.6733 B(  1-C ,  5-C ) :   1.2133
B(  2-N ,  3-S ) :   1.2071 B(  2-N ,  4-N ) :   0.1248 B(  3-S ,  4-N ) :   1.2086
B(  4-N ,  5-C ) :   1.6981 B(  5-C ,  6-C ) :   0.9862 B(  6-C ,  7-C ) :   0.9794
B(  6-C , 12-C ) :   1.0268 B(  6-C , 84-H ) :   0.8537 B(  7-C ,  8-C ) :   1.2243
B(  7-C , 11-N ) :   1.6921 B(  8-C ,  9-N ) :   1.6789 B(  9-N , 10-S ) :   1.2065
B(  9-N , 11-N ) :   0.1238 B( 10-S , 11-N ) :   1.2054 B( 12-C , 13-C ) :   1.6404
B( 12-C , 26-S ) :   1.0850 B( 13-C , 14-C ) :   1.1492 B( 13-C , 85-H ) :   0.9869
B( 14-C , 15-C ) :   1.3373 B( 14-C , 25-C ) :   1.2816 B( 15-C , 16-C ) :   0.9816
B( 15-C , 22-C ) :   1.3869 B( 16-C , 17-C ) :   1.5742 B( 16-C , 19-C ) :   0.1050
B( 16-C , 20-S ) :   1.1345 B( 17-C , 18-C ) :   1.2171 B( 17-C , 86-H ) :   0.9991
B( 18-C , 19-C ) :   1.6057 B( 18-C , 87-H ) :   0.9948 B( 19-C , 20-S ) :   1.1343
B( 19-C , 21-C ) :   1.0659 B( 21-C , 88-H ) :   0.9518 B( 21-C , 89-H ) :   0.9512
B( 21-C , 90-H ) :   0.9572 B( 22-C , 23-C ) :   1.2722 B( 22-C , 35-S ) :   1.0381
B( 23-C , 24-C ) :   1.2909 B( 23-C , 33-C ) :   1.1810 B( 24-C , 25-C ) :   1.4258
B( 24-C , 27-C ) :   0.9927 B( 25-C , 26-S ) :   1.0535 B( 27-C , 28-C ) :   1.5763
B( 27-C , 30-C ) :   0.1032 B( 27-C , 31-S ) :   1.1216 B( 28-C , 29-C ) :   1.2211
B( 28-C , 91-H ) :   0.9871 B( 29-C , 30-C ) :   1.6100 B( 29-C , 92-H ) :   0.9945
B( 30-C , 31-S ) :   1.1330 B( 30-C , 32-C ) :   1.0650 B( 32-C , 93-H ) :   0.9568
B( 32-C , 94-H ) :   0.9514 B( 32-C , 95-H ) :   0.9516 B( 33-C , 34-C ) :   1.5700
B( 33-C , 96-H ) :   0.9683 B( 34-C , 35-S ) :   1.0821 B( 34-C , 36-C ) :   1.0841
B( 36-C , 37-C ) :   1.4250 B( 36-C , 40-C ) :   0.1069 B( 36-C , 42-C ) :   1.1660
B( 37-C , 38-C ) :   1.2195 B( 37-C , 97-H ) :   1.0013 B( 38-C , 39-F ) :   1.0978
B( 38-C , 40-C ) :   1.3872 B( 40-C , 41-C ) :   1.1806 B( 40-C , 46-C ) :   1.1027
B( 41-C , 42-C ) :   1.1520 B( 41-C , 45-N ) :   1.5353 B( 42-C , 43-N ) :   1.5168
B( 43-N , 44-S ) :   1.2629 B( 43-N , 45-N ) :   0.1466 B( 44-S , 45-N ) :   1.2555
B( 46-C , 47-C ) :   1.5975 B( 46-C , 60-S ) :   1.0606 B( 47-C , 48-C ) :   1.1604
B( 47-C , 98-H ) :   0.9668 B( 48-C , 49-C ) :   1.2936 B( 48-C , 59-C ) :   1.2737
B( 49-C , 50-C ) :   0.9895 B( 49-C , 56-C ) :   1.4306 B( 50-C , 51-C ) :   1.5719
B( 50-C , 53-C ) :   0.1036 B( 50-C , 54-S ) :   1.1324 B( 51-C , 52-C ) :   1.2249
B( 51-C , 99-H ) :   0.9871 B( 52-C , 53-C ) :   1.6044 B( 52-C ,100-H ) :   0.9943
B( 53-C , 54-S ) :   1.1388 B( 53-C , 55-C ) :   1.0658 B( 55-C ,101-H ) :   0.9571
B( 55-C ,102-H ) :   0.9514 B( 55-C ,103-H ) :   0.9517 B( 56-C , 57-C ) :   1.2747
B( 56-C , 69-S ) :   1.0497 B( 57-C , 58-C ) :   1.3434 B( 57-C , 67-C ) :   1.1355
B( 58-C , 59-C ) :   1.3884 B( 58-C , 61-C ) :   0.9786 B( 59-C , 60-S ) :   1.0495
B( 61-C , 62-C ) :   1.5769 B( 61-C , 64-C ) :   0.1049 B( 61-C , 65-S ) :   1.1332
B( 62-C , 63-C ) :   1.2169 B( 62-C ,104-H ) :   1.0002 B( 63-C , 64-C ) :   1.6069
B( 63-C ,105-H ) :   0.9945 B( 64-C , 65-S ) :   1.1355 B( 64-C , 66-C ) :   1.0667
B( 66-C ,106-H ) :   0.9568 B( 66-C ,107-H ) :   0.9515 B( 66-C ,108-H ) :   0.9510
B( 67-C , 68-C ) :   1.6698 B( 67-C ,109-H ) :   1.0064 B( 68-C , 69-S ) :   1.0568
B( 68-C , 70-C ) :   1.0385 B( 70-C , 71-C ) :   0.9852 B( 70-C , 78-C ) :   0.9720
B( 70-C ,110-H ) :   0.8699 B( 71-C , 72-N ) :   1.6984 B( 71-C , 75-C ) :   1.2130
B( 72-N , 73-S ) :   1.2061 B( 72-N , 74-N ) :   0.1235 B( 73-S , 74-N ) :   1.2059
B( 74-N , 75-C ) :   1.6762 B( 75-C , 76-C ) :   1.0184 B( 76-C , 77-C ) :   1.0175
B( 76-C ,111-H ) :   0.8732 B( 76-C ,112-H ) :   0.8572 B( 77-C , 78-C ) :   1.2078
B( 77-C , 81-N ) :   1.6793 B( 78-C , 79-N ) :   1.7015 B( 79-N , 80-S ) :   1.2114
B( 79-N , 81-N ) :   0.1231 B( 80-S , 81-N ) :   1.2084

-----------------------------------------------------------------------------
         ABSORPTION SPECTRUM VIA TRANSITION ELECTRIC DIPOLE MOMENTS
-----------------------------------------------------------------------------
State   Energy  Wavelength   fosc         T2         TX        TY        TZ
        (cm-1)    (nm)                  (au**2)     (au)      (au)      (au)
-----------------------------------------------------------------------------
   0   18060.1    553.7   0.735652139  13.41001  -0.65195  -3.49221   0.88849
   1   20250.1    493.8   0.021641858   0.35184  -0.39726  -0.43786   0.04800
   2   23564.1    424.4   0.497767791   6.95428   0.04947  -1.84163   1.88686
   3   28773.9    347.5   0.981181771  11.22601   1.06303   2.86951   1.36451
   4   29060.1    344.1   0.035227972   0.39908   0.53419  -0.33312  -0.05254
   5   29838.8    335.1   0.019977837   0.22042  -0.45053   0.13144   0.01290
   6   29906.0    334.4   0.013427580   0.14781   0.35862   0.11625   0.07547
   7   29907.3    334.4   0.060894249   0.67031  -0.53705  -0.17753  -0.59192
   8   31374.8    318.7   0.027710775   0.29077  -0.11182   0.18310  -0.49471
   9   31512.1    317.3   0.003931028   0.04107   0.10288   0.16764  -0.04880
  10   31836.1    314.1   0.008990374   0.09297  -0.13150   0.17886  -0.20900
  11   32102.3    311.5   0.061565625   0.63136  -0.12390   0.26436  -0.73900
  12   32460.6    308.1   0.598381038   6.06872   0.48996  -0.78361   2.28355
  13   32757.7    305.3   0.065999026   0.66328  -0.15903   0.51902  -0.60714
  14   33635.4    297.3   0.493319786   4.82845  -0.19847   1.23452  -1.80694
  15   34600.6    289.0   0.004572278   0.04350   0.05295  -0.15608   0.12783
  16   35146.0    284.5   0.039386383   0.36893  -0.18065  -0.05725   0.57708
  17   35508.1    281.6   0.003667404   0.03400  -0.05887   0.09417  -0.14720
  18   35795.2    279.4   0.074544493   0.68559   0.00247  -0.56697   0.60343
  19   35924.6    278.4   0.009751874   0.08937  -0.04609  -0.29459   0.02145
  20   36123.7    276.8   0.045918115   0.41847  -0.25711  -0.07684  -0.58861
  21   36586.9    273.3   0.021743032   0.19565   0.23392  -0.36843  -0.07204
  22   36706.0    272.4   0.016375826   0.14687   0.08218   0.13662   0.34850
  23   36910.0    270.9   0.013012141   0.11606  -0.04355   0.33753  -0.01544
  24   37062.6    269.8   0.002509394   0.02229  -0.06579  -0.12931  -0.03522
  25   37159.9    269.1   0.035290563   0.31265   0.13935  -0.49924   0.20973
  26   37229.3    268.6   0.025759539   0.22779   0.34534   0.22688  -0.23885
  27   37257.0    268.4   0.020893416   0.18462   0.22383  -0.27645   0.24103
  28   37693.7    265.3   0.237735432   2.07635   0.21759   1.21723  -0.73983
  29   38416.9    260.3   0.167396206   1.43450  -0.53826  -0.04184  -1.06912
  30   39108.6    255.7   0.056217838   0.47324  -0.20962   0.18186  -0.62946
  31   39269.7    254.6   0.018613163   0.15604   0.00311   0.28686  -0.27156
  32   39578.8    252.7   0.075214151   0.62562  -0.10839  -0.65310  -0.43282
  33   39821.3    251.1   0.083291604   0.68859  -0.34581  -0.39163  -0.64470
  34   40163.9    249.0   0.051256094   0.42013  -0.11621  -0.15097   0.61955

FINAL SINGLE POINT ENERGY     -8047.511468935839

DIPOLE MOMENT
-------------
                                X             Y             Z
Electronic contribution:     -3.51300      -2.46578      -0.11563
Nuclear contribution   :      3.54633       2.93037      -0.39336
                        -----------------------------------------
Total Dipole Moment    :      0.03334       0.46459      -0.50899
                        -----------------------------------------
Magnitude (a.u.)       :      0.68995
Magnitude (Debye)      :      1.75371

Rotational constants in cm-1:     0.001297     0.000182     0.000168
Rotational constants in MHz :    38.893564     5.469916     5.040292

                             ****ORCA TERMINATED NORMALLY****
TOTAL RUN TIME: 0 days 0 hours 12 minutes 12 seconds 294 msec
