                         Program Version 4.2.0 -  RELEASE  -
|  1> # ORCA input file
|  2> # SCF done       -175.420870487594          0.000844983839
|  3> ! CAM-B3LYP def2-SVP def2/J RIJCOSX Grid4 TightSCF
|  4> %maxcore 5000
|  5> %tddft
|  6>     Mode sTDDFT
|  7>     Ethresh 5.0
|  8>     maxcore 5000
|  9> end
| 10>
| 11> %pal
| 12>   nprocs 6
| 13>   end
| 14> * xyz 0 1
| 15>    C        9.04443        -1.20877         4.78508
| 16>    C        9.42314        -0.75868         6.01146
| 17>    S        8.71197        -1.70204         7.27035
| 18>    C        7.88443        -2.72864         6.12335
| 19>   Cl        6.89539        -4.00558         6.63129
| 20>    C        8.16382        -2.33683         4.84787
| 21>    C        7.80734        -2.75818         3.49289
| 22>    O        7.08238        -3.67876         3.17199
| 23>    C        8.52012        -1.82301         2.59215
| 24>    C        9.27747        -0.87055         3.39347
| 25>    C       10.07040         0.16343         2.97403
| 26>    C       10.73780         0.99186         3.90228
| 27>    N       11.28731         1.67495         4.64197
| 28>    C       10.32829         0.54001         1.64002
| 29>    N       10.59116         0.91392         0.58717
| 30>    C        8.48200        -1.84494         1.22677
| 31>    C        7.79973        -2.70615         0.34551
| 32>    N        7.93343        -2.51289        -0.94939
| 33>    C        7.24185        -3.39145        -1.64759
| 34>    C        6.51124        -4.34550        -0.88760
| 35>    S        6.74245        -4.07465         0.78735
| 36>    N        5.81829        -5.23260        -1.58979
| 37>    C        5.95974        -5.02884        -2.87432
| 38>    S        7.01378        -3.66209        -3.32831
| 39>    C        5.35402        -5.79157        -3.89933
| 40>    N        4.50950        -6.85823        -3.72428
| 41>    C        4.11302        -7.45582        -2.47130
| 42>    C        5.19266        -8.38555        -1.92718
| 43>    C        4.08163        -7.38627        -4.95593
| 44>    O        3.33115        -8.33674        -5.05520
| 45>    C        4.72016        -6.55149        -5.95212
| 46>    C        5.49237        -5.58575        -5.26808
| 47>    C        6.13303        -4.73598        -6.24439
| 48>    O        6.87344        -3.78285        -6.12323
| 49>    N        5.69819        -5.24816        -7.48007
| 50>    C        6.16154        -4.68172        -8.72427
| 51>    C        7.29839        -5.49914        -9.33246
| 52>    C        4.86231        -6.33036        -7.32488
| 53>    C        4.28198        -7.03881        -8.40384
| 54>    C        3.44204        -8.09081        -8.21040
| 55>    C        2.84372        -8.84134        -9.25310
| 56>    S        1.73460       -10.12314        -8.85409
| 57>    C        1.49058       -10.52154       -10.52517
| 58>    C        2.25058        -9.67566       -11.34916
| 59>    C        2.99897        -8.74166       -10.62245
| 60>    C        2.29419        -9.71838       -12.80817
| 61>    O        2.97586        -8.99050       -13.48515
| 62>    C        0.62387       -11.56553       -10.91564
| 63>    C       -0.12301       -12.30239       -10.04906
| 64>    C       -0.98674       -13.33467       -10.47293
| 65>    C       -1.90898       -14.00324        -9.72317
| 66>    C       -2.44313       -15.30982       -10.21849
| 67>    O       -2.31744       -15.75969       -11.33206
| 68>    C       -3.08541       -15.90952        -9.04285
| 69>    C       -3.69380       -17.08630        -8.72398
| 70>    S       -4.22051       -17.07153        -7.05681
| 71>    C       -3.62141       -15.47038        -6.81509
| 72>    C       -3.04615       -14.98496        -7.94686
| 73>    C       -2.42738       -13.74926        -8.39376
| 74>    C       -2.52633       -12.55221        -7.73291
| 75>    C       -3.10562       -12.47474        -6.44864
| 76>    N       -3.56028       -12.40086        -5.39797
| 77>    C       -2.18874       -11.29331        -8.26864
| 78>    N       -1.97955       -10.23854        -8.67099
| 79>   Cl       -3.95596       -18.43177        -9.71887
| 80>    H       10.06787         0.05787         6.26919
| 81>    H        9.05491        -1.09870         0.68861
| 82>    H        3.20179        -8.02264        -2.67994
| 83>    H        3.90439        -6.66267        -1.75182
| 84>    H        5.42300        -9.16160        -2.65333
| 85>    H        4.84172        -8.85470        -1.01296
| 86>    H        6.09587        -7.82378        -1.70492
| 87>    H        6.52233        -3.67808        -8.48261
| 88>    H        5.32386        -4.59598        -9.42161
| 89>    H        8.13943        -5.53257        -8.64444
| 90>    H        7.62697        -5.03784       -10.25945
| 91>    H        6.98104        -6.51857        -9.54092
| 92>    H        4.52183        -6.71593        -9.40573
| 93>    H        3.19960        -8.39284        -7.19953
| 94>    H        3.63287        -8.02474       -11.11196
| 95>    H        1.64620       -10.48325       -13.27316
| 96>    H        0.53041       -11.75743       -11.97613
| 97>    H       -0.03793       -12.10087        -8.99028
| 98>    H       -0.87175       -13.69510       -11.49017
| 99>    H       -3.72942       -15.00804        -5.85406
|100> *
|101>
|102>                          ****END OF INPUT****

CARTESIAN COORDINATES (ANGSTROEM)
---------------------------------
  C      9.044430   -1.208770    4.785080
  C      9.423140   -0.758680    6.011460
  S      8.711970   -1.702040    7.270350
  C      7.884430   -2.728640    6.123350
  Cl     6.895390   -4.005580    6.631290
  C      8.163820   -2.336830    4.847870
  C      7.807340   -2.758180    3.492890
  O      7.082380   -3.678760    3.171990
  C      8.520120   -1.823010    2.592150
  C      9.277470   -0.870550    3.393470
  C     10.070400    0.163430    2.974030
  C     10.737800    0.991860    3.902280
  N     11.287310    1.674950    4.641970
  C     10.328290    0.540010    1.640020
  N     10.591160    0.913920    0.587170
  C      8.482000   -1.844940    1.226770
  C      7.799730   -2.706150    0.345510
  N      7.933430   -2.512890   -0.949390
  C      7.241850   -3.391450   -1.647590
  C      6.511240   -4.345500   -0.887600
  S      6.742450   -4.074650    0.787350
  N      5.818290   -5.232600   -1.589790
  C      5.959740   -5.028840   -2.874320
  S      7.013780   -3.662090   -3.328310
  C      5.354020   -5.791570   -3.899330
  N      4.509500   -6.858230   -3.724280
  C      4.113020   -7.455820   -2.471300
  C      5.192660   -8.385550   -1.927180
  C      4.081630   -7.386270   -4.955930
  O      3.331150   -8.336740   -5.055200
  C      4.720160   -6.551490   -5.952120
  C      5.492370   -5.585750   -5.268080
  C      6.133030   -4.735980   -6.244390
  O      6.873440   -3.782850   -6.123230
  N      5.698190   -5.248160   -7.480070
  C      6.161540   -4.681720   -8.724270
  C      7.298390   -5.499140   -9.332460
  C      4.862310   -6.330360   -7.324880
  C      4.281980   -7.038810   -8.403840
  C      3.442040   -8.090810   -8.210400
  C      2.843720   -8.841340   -9.253100
  S      1.734600  -10.123140   -8.854090
  C      1.490580  -10.521540  -10.525170
  C      2.250580   -9.675660  -11.349160
  C      2.998970   -8.741660  -10.622450
  C      2.294190   -9.718380  -12.808170
  O      2.975860   -8.990500  -13.485150
  C      0.623870  -11.565530  -10.915640
  C     -0.123010  -12.302390  -10.049060
  C     -0.986740  -13.334670  -10.472930
  C     -1.908980  -14.003240   -9.723170
  C     -2.443130  -15.309820  -10.218490
  O     -2.317440  -15.759690  -11.332060
  C     -3.085410  -15.909520   -9.042850
  C     -3.693800  -17.086300   -8.723980
  S     -4.220510  -17.071530   -7.056810
  C     -3.621410  -15.470380   -6.815090
  C     -3.046150  -14.984960   -7.946860
  C     -2.427380  -13.749260   -8.393760
  C     -2.526330  -12.552210   -7.732910
  C     -3.105620  -12.474740   -6.448640
  N     -3.560280  -12.400860   -5.397970
  C     -2.188740  -11.293310   -8.268640
  N     -1.979550  -10.238540   -8.670990
  Cl    -3.955960  -18.431770   -9.718870
  H     10.067870    0.057870    6.269190
  H      9.054910   -1.098700    0.688610
  H      3.201790   -8.022640   -2.679940
  H      3.904390   -6.662670   -1.751820
  H      5.423000   -9.161600   -2.653330
  H      4.841720   -8.854700   -1.012960
  H      6.095870   -7.823780   -1.704920
  H      6.522330   -3.678080   -8.482610
  H      5.323860   -4.595980   -9.421610
  H      8.139430   -5.532570   -8.644440
  H      7.626970   -5.037840  -10.259450
  H      6.981040   -6.518570   -9.540920
  H      4.521830   -6.715930   -9.405730
  H      3.199600   -8.392840   -7.199530
  H      3.632870   -8.024740  -11.111960
  H      1.646200  -10.483250  -13.273160
  H      0.530410  -11.757430  -11.976130
  H     -0.037930  -12.100870   -8.990280
  H     -0.871750  -13.695100  -11.490170
  H     -3.729420  -15.008040   -5.854060

 Total Charge           Charge          ....    0
 Multiplicity           Mult            ....    1
 Number of Electrons    NEL             ....  500
 Basis Dimension        Dim             .... 1038

ORBITAL ENERGIES
----------------

  NO   OCC          E(Eh)            E(eV)
   0   2.0000    -101.620662     -2765.2388
   1   2.0000    -101.619481     -2765.2067
   2   2.0000     -88.996134     -2421.7079
   3   2.0000     -88.995314     -2421.6856
   4   2.0000     -88.984597     -2421.3940
   5   2.0000     -88.978222     -2421.2205
   6   2.0000     -88.975093     -2421.1354
   7   2.0000     -19.232148      -523.3334
   8   2.0000     -19.227650      -523.2109
   9   2.0000     -19.222030      -523.0580
  10   2.0000     -19.205862      -522.6181
  11   2.0000     -19.197324      -522.3858
  12   2.0000     -14.465798      -393.6344
  13   2.0000     -14.461456      -393.5162
  14   2.0000     -14.435704      -392.8155
  15   2.0000     -14.435584      -392.8122
  16   2.0000     -14.423897      -392.4942
  17   2.0000     -14.423052      -392.4712
  18   2.0000     -14.421678      -392.4338
  19   2.0000     -14.421275      -392.4228
  20   2.0000     -10.387568      -282.6601
  21   2.0000     -10.385447      -282.6024
  22   2.0000     -10.381238      -282.4879
  23   2.0000     -10.379692      -282.4458
  24   2.0000     -10.378475      -282.4127
  25   2.0000     -10.378425      -282.4113
  26   2.0000     -10.373588      -282.2797
  27   2.0000     -10.364845      -282.0418
  28   2.0000     -10.354822      -281.7690
  29   2.0000     -10.354798      -281.7684
  30   2.0000     -10.353896      -281.7438
  31   2.0000     -10.353271      -281.7268
  32   2.0000     -10.351541      -281.6798
  33   2.0000     -10.350507      -281.6516
  34   2.0000     -10.350408      -281.6489
  35   2.0000     -10.339770      -281.3594
  36   2.0000     -10.337869      -281.3077
  37   2.0000     -10.336408      -281.2680
  38   2.0000     -10.331943      -281.1465
  39   2.0000     -10.331579      -281.1366
  40   2.0000     -10.331158      -281.1251
  41   2.0000     -10.328580      -281.0549
  42   2.0000     -10.325660      -280.9755
  43   2.0000     -10.325464      -280.9702
  44   2.0000     -10.325312      -280.9660
  45   2.0000     -10.325223      -280.9636
  46   2.0000     -10.323369      -280.9132
  47   2.0000     -10.323010      -280.9034
  48   2.0000     -10.317970      -280.7662
  49   2.0000     -10.315860      -280.7088
  50   2.0000     -10.315348      -280.6949
  51   2.0000     -10.313442      -280.6430
  52   2.0000     -10.311709      -280.5959
  53   2.0000     -10.309863      -280.5456
  54   2.0000     -10.309198      -280.5275
  55   2.0000     -10.306879      -280.4644
  56   2.0000     -10.306033      -280.4414
  57   2.0000     -10.303380      -280.3692
  58   2.0000     -10.302767      -280.3526
  59   2.0000     -10.302657      -280.3495
  60   2.0000     -10.298496      -280.2363
  61   2.0000     -10.277718      -279.6709
  62   2.0000     -10.272469      -279.5281
  63   2.0000     -10.271850      -279.5112
  64   2.0000     -10.253860      -279.0217
  65   2.0000      -9.575439      -260.5609
  66   2.0000      -9.574250      -260.5286
  67   2.0000      -8.091836      -220.1900
  68   2.0000      -8.091045      -220.1685
  69   2.0000      -8.080014      -219.8684
  70   2.0000      -8.071724      -219.6428
  71   2.0000      -8.069899      -219.5931
  72   2.0000      -7.346087      -199.8972
  73   2.0000      -7.344891      -199.8646
  74   2.0000      -7.335469      -199.6083
  75   2.0000      -7.334927      -199.5935
  76   2.0000      -7.334286      -199.5761
  77   2.0000      -7.333745      -199.5613
  78   2.0000      -6.061248      -164.9349
  79   2.0000      -6.060454      -164.9133
  80   2.0000      -6.056582      -164.8080
  81   2.0000      -6.055820      -164.7872
  82   2.0000      -6.054085      -164.7400
  83   2.0000      -6.053262      -164.7176
  84   2.0000      -6.049092      -164.6042
  85   2.0000      -6.044939      -164.4912
  86   2.0000      -6.042478      -164.4242
  87   2.0000      -6.040957      -164.3828
  88   2.0000      -6.039060      -164.3312
  89   2.0000      -6.036763      -164.2687
  90   2.0000      -6.035215      -164.2265
  91   2.0000      -6.033859      -164.1896
  92   2.0000      -6.031671      -164.1301
  93   2.0000      -1.149467       -31.2786
  94   2.0000      -1.146177       -31.1891
  95   2.0000      -1.140527       -31.0353
  96   2.0000      -1.138877       -30.9904
  97   2.0000      -1.136031       -30.9130
  98   2.0000      -1.105018       -30.0691
  99   2.0000      -1.076496       -29.2929
 100   2.0000      -1.070655       -29.1340
 101   2.0000      -1.055577       -28.7237
 102   2.0000      -1.041554       -28.3421
 103   2.0000      -1.040737       -28.3199
 104   2.0000      -1.020815       -27.7778
 105   2.0000      -1.019217       -27.7343
 106   2.0000      -1.015472       -27.6324
 107   2.0000      -1.001948       -27.2644
 108   2.0000      -0.999897       -27.2086
 109   2.0000      -0.991700       -26.9855
 110   2.0000      -0.991333       -26.9755
 111   2.0000      -0.959385       -26.1062
 112   2.0000      -0.958149       -26.0726
 113   2.0000      -0.943841       -25.6832
 114   2.0000      -0.938418       -25.5356
 115   2.0000      -0.927200       -25.2304
 116   2.0000      -0.921607       -25.0782
 117   2.0000      -0.913320       -24.8527
 118   2.0000      -0.908770       -24.7289
 119   2.0000      -0.901223       -24.5235
 120   2.0000      -0.886609       -24.1259
 121   2.0000      -0.882603       -24.0169
 122   2.0000      -0.876342       -23.8465
 123   2.0000      -0.872847       -23.7514
 124   2.0000      -0.858436       -23.3592
 125   2.0000      -0.839538       -22.8450
 126   2.0000      -0.835805       -22.7434
 127   2.0000      -0.834990       -22.7212
 128   2.0000      -0.824312       -22.4307
 129   2.0000      -0.818663       -22.2769
 130   2.0000      -0.806438       -21.9443
 131   2.0000      -0.781506       -21.2659
 132   2.0000      -0.767479       -20.8842
 133   2.0000      -0.764739       -20.8096
 134   2.0000      -0.759270       -20.6608
 135   2.0000      -0.758682       -20.6448
 136   2.0000      -0.742540       -20.2055
 137   2.0000      -0.731954       -19.9175
 138   2.0000      -0.723302       -19.6821
 139   2.0000      -0.712478       -19.3875
 140   2.0000      -0.701456       -19.0876
 141   2.0000      -0.699977       -19.0473
 142   2.0000      -0.692094       -18.8328
 143   2.0000      -0.682163       -18.5626
 144   2.0000      -0.678927       -18.4746
 145   2.0000      -0.677754       -18.4426
 146   2.0000      -0.675566       -18.3831
 147   2.0000      -0.666764       -18.1436
 148   2.0000      -0.660899       -17.9840
 149   2.0000      -0.654891       -17.8205
 150   2.0000      -0.650542       -17.7022
 151   2.0000      -0.649935       -17.6856
 152   2.0000      -0.633924       -17.2500
 153   2.0000      -0.623495       -16.9662
 154   2.0000      -0.620552       -16.8861
 155   2.0000      -0.618158       -16.8209
 156   2.0000      -0.613077       -16.6827
 157   2.0000      -0.610195       -16.6043
 158   2.0000      -0.600802       -16.3487
 159   2.0000      -0.597933       -16.2706
 160   2.0000      -0.592654       -16.1269
 161   2.0000      -0.586103       -15.9487
 162   2.0000      -0.576631       -15.6909
 163   2.0000      -0.566202       -15.4071
 164   2.0000      -0.562196       -15.2981
 165   2.0000      -0.557630       -15.1739
 166   2.0000      -0.556974       -15.1560
 167   2.0000      -0.555457       -15.1147
 168   2.0000      -0.552033       -15.0216
 169   2.0000      -0.551144       -14.9974
 170   2.0000      -0.548431       -14.9236
 171   2.0000      -0.545875       -14.8540
 172   2.0000      -0.543297       -14.7839
 173   2.0000      -0.538360       -14.6495
 174   2.0000      -0.537922       -14.6376
 175   2.0000      -0.534291       -14.5388
 176   2.0000      -0.529948       -14.4206
 177   2.0000      -0.527013       -14.3408
 178   2.0000      -0.526393       -14.3239
 179   2.0000      -0.525054       -14.2874
 180   2.0000      -0.523257       -14.2385
 181   2.0000      -0.522230       -14.2106
 182   2.0000      -0.519067       -14.1245
 183   2.0000      -0.516092       -14.0436
 184   2.0000      -0.512658       -13.9501
 185   2.0000      -0.509002       -13.8507
 186   2.0000      -0.508370       -13.8334
 187   2.0000      -0.508144       -13.8273
 188   2.0000      -0.501966       -13.6592
 189   2.0000      -0.500189       -13.6108
 190   2.0000      -0.499162       -13.5829
 191   2.0000      -0.498674       -13.5696
 192   2.0000      -0.493915       -13.4401
 193   2.0000      -0.491203       -13.3663
 194   2.0000      -0.485547       -13.2124
 195   2.0000      -0.482136       -13.1196
 196   2.0000      -0.480942       -13.0871
 197   2.0000      -0.479708       -13.0535
 198   2.0000      -0.479344       -13.0436
 199   2.0000      -0.472759       -12.8644
 200   2.0000      -0.469891       -12.7864
 201   2.0000      -0.466267       -12.6878
 202   2.0000      -0.460830       -12.5398
 203   2.0000      -0.459020       -12.4906
 204   2.0000      -0.457653       -12.4534
 205   2.0000      -0.456379       -12.4187
 206   2.0000      -0.456043       -12.4095
 207   2.0000      -0.453618       -12.3436
 208   2.0000      -0.449645       -12.2355
 209   2.0000      -0.448220       -12.1967
 210   2.0000      -0.448109       -12.1937
 211   2.0000      -0.447286       -12.1713
 212   2.0000      -0.445352       -12.1187
 213   2.0000      -0.442773       -12.0485
 214   2.0000      -0.441081       -12.0024
 215   2.0000      -0.438022       -11.9192
 216   2.0000      -0.436252       -11.8710
 217   2.0000      -0.433261       -11.7896
 218   2.0000      -0.433125       -11.7859
 219   2.0000      -0.431676       -11.7465
 220   2.0000      -0.426526       -11.6064
 221   2.0000      -0.422191       -11.4884
 222   2.0000      -0.420333       -11.4378
 223   2.0000      -0.417161       -11.3515
 224   2.0000      -0.415642       -11.3102
 225   2.0000      -0.412129       -11.2146
 226   2.0000      -0.408814       -11.1244
 227   2.0000      -0.405855       -11.0439
 228   2.0000      -0.405333       -11.0297
 229   2.0000      -0.400495       -10.8980
 230   2.0000      -0.386277       -10.5111
 231   2.0000      -0.383619       -10.4388
 232   2.0000      -0.368863       -10.0373
 233   2.0000      -0.358648        -9.7593
 234   2.0000      -0.355573        -9.6756
 235   2.0000      -0.349344        -9.5061
 236   2.0000      -0.347053        -9.4438
 237   2.0000      -0.346653        -9.4329
 238   2.0000      -0.345559        -9.4031
 239   2.0000      -0.344020        -9.3613
 240   2.0000      -0.342127        -9.3097
 241   2.0000      -0.340063        -9.2536
 242   2.0000      -0.334933        -9.1140
 243   2.0000      -0.329650        -8.9702
 244   2.0000      -0.324345        -8.8259
 245   2.0000      -0.319121        -8.6837
 246   2.0000      -0.316045        -8.6000
 247   2.0000      -0.299251        -8.1430
 248   2.0000      -0.287813        -7.8318
 249   2.0000      -0.245209        -6.6725
 250   0.0000      -0.122433        -3.3316
 251   0.0000      -0.107474        -2.9245
 252   0.0000      -0.080210        -2.1826
 253   0.0000      -0.059771        -1.6265
 254   0.0000      -0.056199        -1.5293

MULLIKEN ATOMIC CHARGES
-----------------------
   0 C :    0.029962
   1 C :   -0.131659
   2 S :    0.187853
   3 C :   -0.170126
   4 Cl:    0.000998
   5 C :    0.080948
   6 C :    0.175197
   7 O :   -0.162073
   8 C :   -0.104642
   9 C :    0.304090
  10 C :   -0.332667
  11 C :   -0.198059
  12 N :    0.159638
  13 C :   -0.190538
  14 N :    0.172099
  15 C :    0.003936
  16 C :   -0.106012
  17 N :   -0.009508
  18 C :   -0.041222
  19 C :   -0.038235
  20 S :    0.194103
  21 N :   -0.039724
  22 C :   -0.206453
  23 S :    0.193654
  24 C :    0.206768
  25 N :   -0.252614
  26 C :    0.128769
  27 C :    0.004117
  28 C :    0.164104
  29 O :   -0.209123
  30 C :   -0.066657
  31 C :   -0.090388
  32 C :    0.156068
  33 O :   -0.188171
  34 N :   -0.260480
  35 C :    0.095515
  36 C :    0.004752
  37 C :    0.143225
  38 C :   -0.024923
  39 C :    0.084276
  40 C :   -0.059854
  41 S :    0.190275
  42 C :   -0.056319
  43 C :    0.026487
  44 C :   -0.012297
  45 C :    0.146742
  46 O :   -0.171224
  47 C :    0.012631
  48 C :    0.006577
  49 C :    0.022288
  50 C :   -0.125049
  51 C :    0.141336
  52 O :   -0.128606
  53 C :    0.085781
  54 C :   -0.174130
  55 S :    0.186294
  56 C :   -0.128440
  57 C :    0.019550
  58 C :    0.277157
  59 C :   -0.318747
  60 C :   -0.185783
  61 N :    0.155711
  62 C :   -0.215165
  63 N :    0.174496
  64 Cl:    0.000477
  65 H :    0.055554
  66 H :    0.034272
  67 H :    0.035128
  68 H :    0.032680
  69 H :    0.018278
  70 H :    0.018889
  71 H :    0.018823
  72 H :    0.047546
  73 H :    0.028087
  74 H :    0.032254
  75 H :    0.028669
  76 H :    0.015139
  77 H :   -0.021861
  78 H :    0.012212
  79 H :    0.002090
  80 H :   -0.013801
  81 H :    0.009187
  82 H :    0.035128
  83 H :    0.021171
  84 H :    0.053564
Sum of atomic charges:   -0.0000000

LOEWDIN ATOMIC CHARGES
----------------------
   0 C :   -0.058086
   1 C :   -0.147816
   2 S :    0.476804
   3 C :   -0.271663
   4 Cl:    0.193523
   5 C :   -0.117246
   6 C :    0.082203
   7 O :   -0.153768
   8 C :   -0.090603
   9 C :    0.072646
  10 C :   -0.131479
  11 C :   -0.014241
  12 N :   -0.049851
  13 C :   -0.027087
  14 N :   -0.034407
  15 C :    0.051810
  16 C :   -0.140127
  17 N :   -0.069634
  18 C :   -0.212963
  19 C :   -0.206223
  20 S :    0.490685
  21 N :   -0.093545
  22 C :   -0.116273
  23 S :    0.481101
  24 C :    0.035816
  25 N :    0.014286
  26 C :    0.037442
  27 C :   -0.059942
  28 C :    0.079730
  29 O :   -0.199515
  30 C :   -0.123162
  31 C :   -0.111130
  32 C :    0.074789
  33 O :   -0.187667
  34 N :   -0.000388
  35 C :    0.036968
  36 C :   -0.060255
  37 C :    0.086827
  38 C :   -0.040244
  39 C :    0.019291
  40 C :   -0.159223
  41 S :    0.499268
  42 C :   -0.147287
  43 C :   -0.098911
  44 C :   -0.010360
  45 C :    0.108635
  46 O :   -0.125789
  47 C :    0.006934
  48 C :   -0.024077
  49 C :    0.063760
  50 C :   -0.084382
  51 C :    0.079099
  52 O :   -0.134097
  53 C :   -0.118277
  54 C :   -0.272044
  55 S :    0.474333
  56 C :   -0.150930
  57 C :   -0.057373
  58 C :    0.068361
  59 C :   -0.134929
  60 C :   -0.016348
  61 N :   -0.047316
  62 C :   -0.027097
  63 N :   -0.045085
  64 Cl:    0.192426
  65 H :    0.038246
  66 H :    0.060019
  67 H :    0.032441
  68 H :    0.026700
  69 H :    0.025736
  70 H :    0.030268
  71 H :    0.021079
  72 H :    0.039870
  73 H :    0.024809
  74 H :    0.033405
  75 H :    0.033029
  76 H :    0.021752
  77 H :    0.030621
  78 H :    0.038525
  79 H :    0.037147
  80 H :   -0.002508
  81 H :    0.039171
  82 H :    0.029017
  83 H :    0.047071
  84 H :    0.037702

  Mayer bond orders larger than 0.100000
B(  0-C ,  1-C ) :   1.5467 B(  0-C ,  5-C ) :   1.2251 B(  0-C ,  9-C ) :   0.9944
B(  1-C ,  2-S ) :   1.1600 B(  1-C , 65-H ) :   0.9545 B(  2-S ,  3-C ) :   1.1514
B(  3-C ,  4-Cl) :   1.1298 B(  3-C ,  5-C ) :   1.4701 B(  5-C ,  6-C ) :   0.9705
B(  6-C ,  7-O ) :   2.1430 B(  6-C ,  8-C ) :   0.9608 B(  8-C ,  9-C ) :   1.0750
B(  8-C , 15-C ) :   1.5627 B(  9-C , 10-C ) :   1.6544 B( 10-C , 11-C ) :   1.1524
B( 10-C , 13-C ) :   1.1364 B( 11-C , 12-N ) :   2.9896 B( 13-C , 14-N ) :   2.9717
B( 15-C , 16-C ) :   1.1960 B( 15-C , 66-H ) :   0.9409 B( 16-C , 17-N ) :   1.5964
B( 16-C , 20-S ) :   1.0639 B( 17-N , 18-C ) :   1.4911 B( 17-N , 20-S ) :   0.1188
B( 18-C , 19-C ) :   1.1855 B( 18-C , 23-S ) :   1.0723 B( 19-C , 20-S ) :   1.0918
B( 19-C , 21-N ) :   1.4187 B( 21-N , 22-C ) :   1.6064 B( 21-N , 23-S ) :   0.1081
B( 22-C , 23-S ) :   1.1199 B( 22-C , 24-C ) :   1.1463 B( 24-C , 25-N ) :   1.2033
B( 24-C , 31-C ) :   1.3548 B( 25-N , 26-C ) :   0.9334 B( 25-N , 28-C ) :   1.0635
B( 26-C , 27-C ) :   1.1233 B( 26-C , 67-H ) :   0.9295 B( 26-C , 68-H ) :   0.9379
B( 27-C , 69-H ) :   0.9663 B( 27-C , 70-H ) :   0.9683 B( 27-C , 71-H ) :   0.9661
B( 28-C , 29-O ) :   2.0206 B( 28-C , 30-C ) :   0.9855 B( 29-O , 78-H ) :   0.1197
B( 30-C , 31-C ) :   1.2681 B( 30-C , 37-C ) :   1.3188 B( 31-C , 32-C ) :   0.9603
B( 32-C , 33-O ) :   2.1102 B( 32-C , 34-N ) :   1.0486 B( 34-N , 35-C ) :   0.9421
B( 34-N , 37-C ) :   1.1658 B( 35-C , 36-C ) :   1.1205 B( 35-C , 72-H ) :   0.9280
B( 35-C , 73-H ) :   0.9502 B( 36-C , 74-H ) :   0.9636 B( 36-C , 75-H ) :   0.9679
B( 36-C , 76-H ) :   0.9685 B( 37-C , 38-C ) :   1.1720 B( 38-C , 39-C ) :   1.6118
B( 38-C , 77-H ) :   0.9644 B( 39-C , 40-C ) :   1.1292 B( 39-C , 78-H ) :   0.9369
B( 40-C , 41-S ) :   1.1332 B( 40-C , 44-C ) :   1.4434 B( 41-S , 42-C ) :   1.1565
B( 42-C , 43-C ) :   1.3567 B( 42-C , 47-C ) :   1.1676 B( 43-C , 44-C ) :   1.2888
B( 43-C , 45-C ) :   0.9805 B( 44-C , 79-H ) :   0.9980 B( 45-C , 46-O ) :   2.1862
B( 45-C , 80-H ) :   0.9625 B( 47-C , 48-C ) :   1.6245 B( 47-C , 81-H ) :   0.9783
B( 48-C , 49-C ) :   1.1422 B( 48-C , 82-H ) :   0.9581 B( 49-C , 50-C ) :   1.6235
B( 49-C , 83-H ) :   0.9551 B( 50-C , 51-C ) :   0.9371 B( 50-C , 58-C ) :   1.0440
B( 51-C , 52-O ) :   2.2762 B( 51-C , 53-C ) :   0.9270 B( 53-C , 54-C ) :   1.4842
B( 53-C , 57-C ) :   1.2209 B( 54-C , 55-S ) :   1.1517 B( 54-C , 64-Cl) :   1.1304
B( 55-S , 56-C ) :   1.1594 B( 56-C , 57-C ) :   1.5518 B( 56-C , 84-H ) :   0.9556
B( 57-C , 58-C ) :   1.0094 B( 58-C , 59-C ) :   1.6526 B( 59-C , 60-C ) :   1.1354
B( 59-C , 62-C ) :   1.1520 B( 60-C , 61-N ) :   2.9969 B( 62-C , 63-N ) :   3.0142

-----------------------------------------------------------------------------
         ABSORPTION SPECTRUM VIA TRANSITION ELECTRIC DIPOLE MOMENTS
-----------------------------------------------------------------------------
State   Energy  Wavelength   fosc         T2         TX        TY        TZ
        (cm-1)    (nm)                  (au**2)     (au)      (au)      (au)
-----------------------------------------------------------------------------
   0   12741.9    784.8   1.343055473  34.70037  -2.84467  -3.14617  -4.08777
   1   17489.0    571.8   0.307216882   5.78302  -0.49679  -0.13924   2.34879
   2   21637.6    462.2   0.614630456   9.35148   2.21339   1.80875  -1.08665
   3   22480.2    444.8   0.037798370   0.55354  -0.43174  -0.57120   0.20217
   4   24291.1    411.7   0.524263025   7.10523  -1.35407  -1.63066  -1.61637
   5   25665.1    389.6   0.003101920   0.03979   0.06616  -0.03541  -0.18482
   6   26483.6    377.6   0.064184812   0.79787   0.35993   0.81177   0.09664
   7   27304.3    366.2   0.001024391   0.01235  -0.00073  -0.11091  -0.00698
   8   27519.3    363.4   0.227552100   2.72219  -0.28243  -1.01151  -1.27251
   9   27850.6    359.1   0.048961352   0.57876  -0.50536  -0.50473  -0.26195
  10   27991.9    357.2   0.001213523   0.01427  -0.01597   0.11836  -0.00285
  11   27999.8    357.1   0.001062114   0.01249  -0.01693  -0.08958  -0.06463
  12   28597.9    349.7   0.127000306   1.46200   0.50400   0.92179  -0.59856
  13   29007.2    344.7   0.071804605   0.81493  -0.27466  -0.55461  -0.65719
  14   29653.1    337.2   0.001128964   0.01253  -0.00215   0.00633   0.11176
  15   29695.0    336.8   0.104668966   1.16041  -0.17906  -0.25503  -1.03117
  16   30465.5    328.2   0.007097305   0.07669  -0.01224   0.13190  -0.24320
  17   30567.1    327.1   0.009607887   0.10348   0.05162   0.24727  -0.19918
  18   30823.4    324.4   0.071372952   0.76230   0.19977   0.57559   0.62538
  19   30909.4    323.5   0.004945003   0.05267  -0.00858   0.18521   0.13525
  20   31145.4    321.1   0.059426300   0.62815  -0.27391  -0.72196  -0.17859
  21   32530.1    307.4   0.079298593   0.80252  -0.29013  -0.51015  -0.67682
  22   32679.2    306.0   0.166646291   1.67880   0.53946   0.80690  -0.85831
  23   33577.0    297.8   0.035026682   0.34343   0.23909   0.53315   0.04489
  24   33841.7    295.5   0.129645865   1.26120   0.18399  -0.30458  -1.06516
  25   34230.6    292.1   0.072576012   0.69800  -0.17801  -0.07085   0.81320
  26   34513.3    289.7   0.003173164   0.03027   0.04013   0.16914  -0.00713
  27   34863.8    286.8   0.039568923   0.37364   0.31162   0.51849   0.08779
  28   35320.3    283.1   0.107209647   0.99927  -0.24959  -0.96133   0.11329
  29   35551.1    281.3   0.169607083   1.57060   0.39846   0.97204  -0.68336
  30   35887.0    278.7   0.039073134   0.35844   0.12676   0.36234  -0.45944
  31   35909.8    278.5   0.000970863   0.00890   0.02296   0.04916  -0.07718
  32   36205.4    276.2   0.080948922   0.73606  -0.43659  -0.30052   0.67464
  33   36502.0    274.0   0.005785830   0.05218  -0.16450  -0.10916   0.11492
  34   36675.6    272.7   0.280091208   2.51419  -0.66316  -0.90577   1.11981
  35   37016.4    270.2   0.173338411   1.54162  -0.10195  -0.12468   1.23113
  36   37210.6    268.7   0.001090630   0.00965  -0.03448  -0.01981   0.08982
  37   37540.0    266.4   0.097466962   0.85475   0.51937   0.67099   0.36713
  38   37972.1    263.4   0.083278959   0.72201  -0.34254  -0.77761  -0.00298
  39   37986.8    263.2   0.337686053   2.92655   0.74951   1.53708  -0.04641
  40   38054.0    262.8   0.130692544   1.13064  -0.26694  -1.02541  -0.08900
  41   38333.4    260.9   0.243998485   2.09549   0.86503   1.11459  -0.32388
  42   38891.9    257.1   0.016838884   0.14254  -0.35921  -0.01979  -0.11451
  43   39275.1    254.6   0.010137679   0.08498  -0.05155  -0.27464  -0.08303

FINAL SINGLE POINT ENERGY     -5448.153530671107

DIPOLE MOMENT
-------------
                                X             Y             Z
Electronic contribution:    -16.21247      -9.01539      52.99343
Nuclear contribution   :     15.60456       6.36267     -52.83046
                        -----------------------------------------
Total Dipole Moment    :     -0.60791      -2.65272       0.16298
                        -----------------------------------------
Magnitude (a.u.)       :      2.72635
Magnitude (Debye)      :      6.92984

Rotational constants in cm-1:     0.001638     0.000230     0.000204
Rotational constants in MHz :    49.108022     6.901107     6.118822

                             ****ORCA TERMINATED NORMALLY****
TOTAL RUN TIME: 0 days 0 hours 7 minutes 32 seconds 828 msec
