                         Program Version 4.2.0 -  RELEASE  -
|  1> # ORCA input file
|  2> # SCF done       -159.901996776099          0.000590394387
|  3> ! CAM-B3LYP def2-SVP def2/J RIJCOSX Grid4 TightSCF
|  4> %maxcore 5000
|  5> %tddft
|  6>     Mode sTDDFT
|  7>     Ethresh 5.0
|  8>     maxcore 5000
|  9> end
| 10>
| 11> %pal
| 12>   nprocs 6
| 13>   end
| 14> * xyz 0 1
| 15>    C        9.40378         1.84605         1.44864
| 16>    C       10.26399         2.88643         1.61071
| 17>    S       11.23998         3.11552         0.20440
| 18>    C       10.47445         1.78191        -0.62453
| 19>   Cl       10.92562         1.33910        -2.19547
| 20>    C        9.52294         1.21238         0.16906
| 21>    C        8.56457         0.11350         0.07847
| 22>    O        8.38055        -0.63533        -0.86498
| 23>    C        7.85998         0.09755         1.37431
| 24>    C        8.36822         1.17332         2.21194
| 25>    C        7.97661         1.53952         3.47139
| 26>    C        8.58418         2.62679         4.13569
| 27>    N        9.06545         3.50902         4.68878
| 28>    C        6.96460         0.93188         4.24214
| 29>    N        6.15237         0.49317         4.92415
| 30>    C        6.88985        -0.80157         1.72640
| 31>    C        6.33336        -1.85257         0.97562
| 32>    C        5.32235        -2.67607         1.48297
| 33>    F        4.83049        -2.51125         2.70978
| 34>    C        4.87434        -3.64956         0.59877
| 35>    F        3.85589        -4.46222         0.86386
| 36>    C        5.52443        -3.60173        -0.63085
| 37>    S        6.70636        -2.32940        -0.65611
| 38>    C        5.27823        -4.49811        -1.70894
| 39>    N        5.37065        -4.18866        -3.04480
| 40>    C        5.76491        -2.93630        -3.64488
| 41>    C        7.26434        -2.88745        -3.92192
| 42>    C        4.98196        -5.27118        -3.85391
| 43>    O        4.95312        -5.22370        -5.06921
| 44>    C        4.66214        -6.32395        -2.92106
| 45>    C        4.86146        -5.82109        -1.61104
| 46>    C        4.64864        -6.90997        -0.67539
| 47>    O        4.79800        -7.00625         0.51912
| 48>    N        4.25603        -7.99122        -1.49849
| 49>    C        3.86763        -9.25542        -0.92196
| 50>    C        2.34977        -9.39218        -0.83111
| 51>    C        4.25980        -7.65740        -2.82824
| 52>    C        3.90144        -8.54636        -3.87308
| 53>    C        3.89774        -8.16145        -5.17712
| 54>    C        3.51204        -8.98626        -6.21383
| 55>    C        3.15019        -9.67576        -7.15609
| 56>    C        2.74894       -10.41507        -8.19334
| 57>    C        2.34009       -11.04188        -9.16113
| 58>    C        1.97134       -11.79654       -10.25063
| 59>    C        1.39417       -11.36155       -11.40537
| 60>    C        1.35946       -12.28299       -12.58246
| 61>    O        1.59266       -13.46816       -12.56909
| 62>    C        1.03517       -11.41138       -13.71698
| 63>    C        0.90382       -11.53211       -15.06789
| 64>    S        0.50391        -9.98845       -15.78475
| 65>    C        0.51122        -9.20114       -14.24844
| 66>    C        0.80822       -10.07430       -13.24954
| 67>    C        0.92182       -10.04952       -11.80181
| 68>    C        0.52067        -9.00872       -11.00703
| 69>    C        0.11568        -7.77806       -11.56717
| 70>    N       -0.20411        -6.76944       -12.01034
| 71>    C        0.34846        -9.06302        -9.61099
| 72>    N        0.10891        -9.06329        -8.48854
| 73>   Cl        1.07897       -12.92489       -16.01602
| 74>    H       10.39778         3.53607         2.45270
| 75>    H        6.46603        -0.71683         2.72124
| 76>    H        5.46492        -2.11094        -2.99632
| 77>    H        5.22102        -2.86785        -4.59187
| 78>    H        7.83415        -2.96102        -2.99923
| 79>    H        7.51290        -1.94719        -4.40454
| 80>    H        7.54458        -3.70489        -4.58168
| 81>    H        4.29727        -9.27206         0.08370
| 82>    H        4.30098       -10.07351        -1.50403
| 83>    H        1.94321        -8.59283        -0.21661
| 84>    H        2.09320       -10.34467        -0.37601
| 85>    H        1.89110        -9.33938        -1.81618
| 86>    H        3.60336        -9.55212        -3.61230
| 87>    H        4.18904        -7.15223        -5.45160
| 88>    H        2.23074       -12.85231       -10.22124
| 89>    H        0.30290        -8.15103       -14.19488
| 90> *
| 91>
| 92>                          ****END OF INPUT****

CARTESIAN COORDINATES (ANGSTROEM)
---------------------------------
  C      9.403780    1.846050    1.448640
  C     10.263990    2.886430    1.610710
  S     11.239980    3.115520    0.204400
  C     10.474450    1.781910   -0.624530
  Cl    10.925620    1.339100   -2.195470
  C      9.522940    1.212380    0.169060
  C      8.564570    0.113500    0.078470
  O      8.380550   -0.635330   -0.864980
  C      7.859980    0.097550    1.374310
  C      8.368220    1.173320    2.211940
  C      7.976610    1.539520    3.471390
  C      8.584180    2.626790    4.135690
  N      9.065450    3.509020    4.688780
  C      6.964600    0.931880    4.242140
  N      6.152370    0.493170    4.924150
  C      6.889850   -0.801570    1.726400
  C      6.333360   -1.852570    0.975620
  C      5.322350   -2.676070    1.482970
  F      4.830490   -2.511250    2.709780
  C      4.874340   -3.649560    0.598770
  F      3.855890   -4.462220    0.863860
  C      5.524430   -3.601730   -0.630850
  S      6.706360   -2.329400   -0.656110
  C      5.278230   -4.498110   -1.708940
  N      5.370650   -4.188660   -3.044800
  C      5.764910   -2.936300   -3.644880
  C      7.264340   -2.887450   -3.921920
  C      4.981960   -5.271180   -3.853910
  O      4.953120   -5.223700   -5.069210
  C      4.662140   -6.323950   -2.921060
  C      4.861460   -5.821090   -1.611040
  C      4.648640   -6.909970   -0.675390
  O      4.798000   -7.006250    0.519120
  N      4.256030   -7.991220   -1.498490
  C      3.867630   -9.255420   -0.921960
  C      2.349770   -9.392180   -0.831110
  C      4.259800   -7.657400   -2.828240
  C      3.901440   -8.546360   -3.873080
  C      3.897740   -8.161450   -5.177120
  C      3.512040   -8.986260   -6.213830
  C      3.150190   -9.675760   -7.156090
  C      2.748940  -10.415070   -8.193340
  C      2.340090  -11.041880   -9.161130
  C      1.971340  -11.796540  -10.250630
  C      1.394170  -11.361550  -11.405370
  C      1.359460  -12.282990  -12.582460
  O      1.592660  -13.468160  -12.569090
  C      1.035170  -11.411380  -13.716980
  C      0.903820  -11.532110  -15.067890
  S      0.503910   -9.988450  -15.784750
  C      0.511220   -9.201140  -14.248440
  C      0.808220  -10.074300  -13.249540
  C      0.921820  -10.049520  -11.801810
  C      0.520670   -9.008720  -11.007030
  C      0.115680   -7.778060  -11.567170
  N     -0.204110   -6.769440  -12.010340
  C      0.348460   -9.063020   -9.610990
  N      0.108910   -9.063290   -8.488540
  Cl     1.078970  -12.924890  -16.016020
  H     10.397780    3.536070    2.452700
  H      6.466030   -0.716830    2.721240
  H      5.464920   -2.110940   -2.996320
  H      5.221020   -2.867850   -4.591870
  H      7.834150   -2.961020   -2.999230
  H      7.512900   -1.947190   -4.404540
  H      7.544580   -3.704890   -4.581680
  H      4.297270   -9.272060    0.083700
  H      4.300980  -10.073510   -1.504030
  H      1.943210   -8.592830   -0.216610
  H      2.093200  -10.344670   -0.376010
  H      1.891100   -9.339380   -1.816180
  H      3.603360   -9.552120   -3.612300
  H      4.189040   -7.152230   -5.451600
  H      2.230740  -12.852310  -10.221240
  H      0.302900   -8.151030  -14.194880

 Total Charge           Charge          ....    0
 Multiplicity           Mult            ....    1
 Number of Electrons    NEL             ....  442
 Basis Dimension        Dim             ....  926

ORBITAL ENERGIES
----------------

  NO   OCC          E(Eh)            E(eV)
   0   2.0000    -101.624245     -2765.3363
   1   2.0000    -101.619855     -2765.2168
   2   2.0000     -88.998725     -2421.7784
   3   2.0000     -88.995598     -2421.6933
   4   2.0000     -88.990090     -2421.5435
   5   2.0000     -24.816837      -675.3005
   6   2.0000     -24.804319      -674.9598
   7   2.0000     -19.236843      -523.4611
   8   2.0000     -19.225137      -523.1426
   9   2.0000     -19.199657      -522.4492
  10   2.0000     -19.198963      -522.4304
  11   2.0000     -14.464783      -393.6067
  12   2.0000     -14.462179      -393.5359
  13   2.0000     -14.424844      -392.5200
  14   2.0000     -14.424159      -392.5013
  15   2.0000     -14.423144      -392.4737
  16   2.0000     -14.417737      -392.3266
  17   2.0000     -10.394304      -282.8434
  18   2.0000     -10.389457      -282.7115
  19   2.0000     -10.386236      -282.6238
  20   2.0000     -10.383209      -282.5415
  21   2.0000     -10.383159      -282.5401
  22   2.0000     -10.382162      -282.5130
  23   2.0000     -10.380769      -282.4751
  24   2.0000     -10.379179      -282.4318
  25   2.0000     -10.355956      -281.7999
  26   2.0000     -10.354213      -281.7525
  27   2.0000     -10.354176      -281.7515
  28   2.0000     -10.353546      -281.7343
  29   2.0000     -10.352299      -281.7004
  30   2.0000     -10.351892      -281.6893
  31   2.0000     -10.339347      -281.3479
  32   2.0000     -10.337673      -281.3024
  33   2.0000     -10.337102      -281.2869
  34   2.0000     -10.336091      -281.2593
  35   2.0000     -10.334752      -281.2229
  36   2.0000     -10.331120      -281.1241
  37   2.0000     -10.326340      -280.9940
  38   2.0000     -10.325355      -280.9672
  39   2.0000     -10.325306      -280.9659
  40   2.0000     -10.319528      -280.8086
  41   2.0000     -10.318964      -280.7933
  42   2.0000     -10.318286      -280.7748
  43   2.0000     -10.317015      -280.7402
  44   2.0000     -10.316062      -280.7143
  45   2.0000     -10.315470      -280.6982
  46   2.0000     -10.314758      -280.6788
  47   2.0000     -10.314501      -280.6718
  48   2.0000     -10.311766      -280.5974
  49   2.0000     -10.311515      -280.5906
  50   2.0000     -10.309613      -280.5388
  51   2.0000     -10.307697      -280.4867
  52   2.0000     -10.307096      -280.4703
  53   2.0000     -10.306793      -280.4621
  54   2.0000     -10.303449      -280.3711
  55   2.0000     -10.276841      -279.6471
  56   2.0000     -10.272197      -279.5207
  57   2.0000     -10.268245      -279.4131
  58   2.0000     -10.261975      -279.2425
  59   2.0000      -9.579008      -260.6581
  60   2.0000      -9.574619      -260.5386
  61   2.0000      -8.094552      -220.2640
  62   2.0000      -8.091318      -220.1759
  63   2.0000      -8.082200      -219.9278
  64   2.0000      -7.349608      -199.9930
  65   2.0000      -7.345263      -199.8748
  66   2.0000      -7.339068      -199.7062
  67   2.0000      -7.338537      -199.6917
  68   2.0000      -7.334662      -199.5863
  69   2.0000      -7.334102      -199.5711
  70   2.0000      -6.063967      -165.0089
  71   2.0000      -6.060720      -164.9206
  72   2.0000      -6.059319      -164.8824
  73   2.0000      -6.056727      -164.8119
  74   2.0000      -6.056088      -164.7945
  75   2.0000      -6.053548      -164.7254
  76   2.0000      -6.051908      -164.6808
  77   2.0000      -6.047332      -164.5563
  78   2.0000      -6.043940      -164.4640
  79   2.0000      -1.334351       -36.3095
  80   2.0000      -1.317990       -35.8643
  81   2.0000      -1.153339       -31.3840
  82   2.0000      -1.143119       -31.1059
  83   2.0000      -1.141362       -31.0580
  84   2.0000      -1.136221       -30.9181
  85   2.0000      -1.074628       -29.2421
  86   2.0000      -1.066310       -29.0158
  87   2.0000      -1.044751       -28.4291
  88   2.0000      -1.041013       -28.3274
  89   2.0000      -1.022346       -27.8195
  90   2.0000      -1.019106       -27.7313
  91   2.0000      -1.017020       -27.6745
  92   2.0000      -1.002570       -27.2813
  93   2.0000      -0.999122       -27.1875
  94   2.0000      -0.994681       -27.0666
  95   2.0000      -0.991283       -26.9742
  96   2.0000      -0.961205       -26.1557
  97   2.0000      -0.958662       -26.0865
  98   2.0000      -0.940344       -25.5881
  99   2.0000      -0.932488       -25.3743
 100   2.0000      -0.922733       -25.1088
 101   2.0000      -0.921045       -25.0629
 102   2.0000      -0.908687       -24.7266
 103   2.0000      -0.906834       -24.6762
 104   2.0000      -0.888879       -24.1876
 105   2.0000      -0.880207       -23.9517
 106   2.0000      -0.869590       -23.6627
 107   2.0000      -0.851958       -23.1830
 108   2.0000      -0.847898       -23.0725
 109   2.0000      -0.838865       -22.8267
 110   2.0000      -0.835398       -22.7323
 111   2.0000      -0.826655       -22.4944
 112   2.0000      -0.820614       -22.3300
 113   2.0000      -0.810337       -22.0504
 114   2.0000      -0.788391       -21.4532
 115   2.0000      -0.772385       -21.0177
 116   2.0000      -0.766091       -20.8464
 117   2.0000      -0.762468       -20.7478
 118   2.0000      -0.759093       -20.6560
 119   2.0000      -0.733168       -19.9505
 120   2.0000      -0.726331       -19.7645
 121   2.0000      -0.715003       -19.4562
 122   2.0000      -0.711964       -19.3735
 123   2.0000      -0.700013       -19.0483
 124   2.0000      -0.697909       -18.9911
 125   2.0000      -0.688018       -18.7219
 126   2.0000      -0.683818       -18.6076
 127   2.0000      -0.678971       -18.4757
 128   2.0000      -0.677908       -18.4468
 129   2.0000      -0.669752       -18.2249
 130   2.0000      -0.666195       -18.1281
 131   2.0000      -0.658321       -17.9138
 132   2.0000      -0.652319       -17.7505
 133   2.0000      -0.626745       -17.0546
 134   2.0000      -0.624154       -16.9841
 135   2.0000      -0.623422       -16.9642
 136   2.0000      -0.620286       -16.8788
 137   2.0000      -0.619732       -16.8638
 138   2.0000      -0.608193       -16.5498
 139   2.0000      -0.603061       -16.4101
 140   2.0000      -0.598144       -16.2763
 141   2.0000      -0.595363       -16.2007
 142   2.0000      -0.584638       -15.9088
 143   2.0000      -0.581249       -15.8166
 144   2.0000      -0.573415       -15.6034
 145   2.0000      -0.570392       -15.5212
 146   2.0000      -0.566009       -15.4019
 147   2.0000      -0.564131       -15.3508
 148   2.0000      -0.560267       -15.2456
 149   2.0000      -0.559515       -15.2252
 150   2.0000      -0.557205       -15.1623
 151   2.0000      -0.550810       -14.9883
 152   2.0000      -0.542176       -14.7534
 153   2.0000      -0.539707       -14.6862
 154   2.0000      -0.537908       -14.6372
 155   2.0000      -0.536257       -14.5923
 156   2.0000      -0.535402       -14.5690
 157   2.0000      -0.531869       -14.4729
 158   2.0000      -0.528688       -14.3863
 159   2.0000      -0.527150       -14.3445
 160   2.0000      -0.520429       -14.1616
 161   2.0000      -0.517544       -14.0831
 162   2.0000      -0.514576       -14.0023
 163   2.0000      -0.510793       -13.8994
 164   2.0000      -0.509744       -13.8708
 165   2.0000      -0.507482       -13.8093
 166   2.0000      -0.506674       -13.7873
 167   2.0000      -0.504220       -13.7205
 168   2.0000      -0.503000       -13.6873
 169   2.0000      -0.498846       -13.5743
 170   2.0000      -0.493555       -13.4303
 171   2.0000      -0.490144       -13.3375
 172   2.0000      -0.483524       -13.1574
 173   2.0000      -0.482304       -13.1242
 174   2.0000      -0.476850       -12.9757
 175   2.0000      -0.473618       -12.8878
 176   2.0000      -0.469934       -12.7876
 177   2.0000      -0.466165       -12.6850
 178   2.0000      -0.460611       -12.5339
 179   2.0000      -0.460209       -12.5229
 180   2.0000      -0.458521       -12.4770
 181   2.0000      -0.456285       -12.4162
 182   2.0000      -0.455565       -12.3965
 183   2.0000      -0.454342       -12.3633
 184   2.0000      -0.451956       -12.2983
 185   2.0000      -0.451460       -12.2849
 186   2.0000      -0.450585       -12.2610
 187   2.0000      -0.448289       -12.1986
 188   2.0000      -0.446497       -12.1498
 189   2.0000      -0.443394       -12.0654
 190   2.0000      -0.443046       -12.0559
 191   2.0000      -0.437531       -11.9058
 192   2.0000      -0.435203       -11.8425
 193   2.0000      -0.433853       -11.8057
 194   2.0000      -0.432677       -11.7737
 195   2.0000      -0.429146       -11.6777
 196   2.0000      -0.427461       -11.6318
 197   2.0000      -0.424301       -11.5458
 198   2.0000      -0.419255       -11.4085
 199   2.0000      -0.418356       -11.3840
 200   2.0000      -0.415023       -11.2934
 201   2.0000      -0.414656       -11.2834
 202   2.0000      -0.408702       -11.1213
 203   2.0000      -0.405921       -11.0457
 204   2.0000      -0.390344       -10.6218
 205   2.0000      -0.380997       -10.3675
 206   2.0000      -0.365125        -9.9356
 207   2.0000      -0.356369        -9.6973
 208   2.0000      -0.351052        -9.5526
 209   2.0000      -0.350929        -9.5493
 210   2.0000      -0.346013        -9.4155
 211   2.0000      -0.340998        -9.2790
 212   2.0000      -0.338400        -9.2083
 213   2.0000      -0.332447        -9.0463
 214   2.0000      -0.325681        -8.8622
 215   2.0000      -0.324968        -8.8428
 216   2.0000      -0.321981        -8.7616
 217   2.0000      -0.316452        -8.6111
 218   2.0000      -0.305036        -8.3004
 219   2.0000      -0.299945        -8.1619
 220   2.0000      -0.249053        -6.7771
 221   0.0000      -0.119744        -3.2584
 222   0.0000      -0.103518        -2.8169
 223   0.0000      -0.077237        -2.1017
 224   0.0000      -0.061416        -1.6712
 225   0.0000      -0.053874        -1.4660

MULLIKEN ATOMIC CHARGES
-----------------------
   0 C :    0.028407
   1 C :   -0.127990
   2 S :    0.189051
   3 C :   -0.168927
   4 Cl:    0.000712
   5 C :    0.078218
   6 C :    0.179398
   7 O :   -0.178228
   8 C :   -0.110314
   9 C :    0.309771
  10 C :   -0.333238
  11 C :   -0.194667
  12 N :    0.159018
  13 C :   -0.191746
  14 N :    0.165895
  15 C :   -0.005906
  16 C :   -0.140239
  17 C :    0.238713
  18 F :   -0.148615
  19 C :    0.241929
  20 F :   -0.142802
  21 C :   -0.211374
  22 S :    0.213029
  23 C :    0.146621
  24 N :   -0.258589
  25 C :    0.093996
  26 C :    0.005641
  27 C :    0.173722
  28 O :   -0.213223
  29 C :   -0.072895
  30 C :   -0.042128
  31 C :    0.138151
  32 O :   -0.168373
  33 N :   -0.266423
  34 C :    0.097020
  35 C :    0.003237
  36 C :    0.140882
  37 C :   -0.013109
  38 C :   -0.101338
  39 C :    0.071360
  40 C :    0.013584
  41 C :    0.032120
  42 C :    0.055640
  43 C :   -0.060435
  44 C :   -0.127597
  45 C :    0.134319
  46 O :   -0.125429
  47 C :    0.087746
  48 C :   -0.171677
  49 S :    0.187385
  50 C :   -0.130000
  51 C :    0.020850
  52 C :    0.285078
  53 C :   -0.304017
  54 C :   -0.190295
  55 N :    0.156375
  56 C :   -0.201545
  57 N :    0.182752
  58 Cl:    0.001779
  59 H :    0.056533
  60 H :    0.024576
  61 H :    0.031214
  62 H :    0.040983
  63 H :    0.027640
  64 H :    0.025105
  65 H :    0.029456
  66 H :    0.046491
  67 H :    0.024950
  68 H :    0.032773
  69 H :    0.025874
  70 H :    0.018879
  71 H :   -0.002570
  72 H :    0.075236
  73 H :    0.057075
  74 H :    0.054505
Sum of atomic charges:   -0.0000000

LOEWDIN ATOMIC CHARGES
----------------------
   0 C :   -0.057255
   1 C :   -0.146870
   2 S :    0.477512
   3 C :   -0.271310
   4 Cl:    0.192992
   5 C :   -0.117494
   6 C :    0.086371
   7 O :   -0.164688
   8 C :   -0.098396
   9 C :    0.073147
  10 C :   -0.134703
  11 C :   -0.014933
  12 N :   -0.049919
  13 C :   -0.026790
  14 N :   -0.037307
  15 C :    0.061389
  16 C :   -0.215170
  17 C :    0.057376
  18 F :   -0.026467
  19 C :    0.034777
  20 F :   -0.022080
  21 C :   -0.200860
  22 S :    0.548966
  23 C :    0.047730
  24 N :    0.005038
  25 C :    0.029324
  26 C :   -0.062539
  27 C :    0.080084
  28 O :   -0.197458
  29 C :   -0.120829
  30 C :   -0.105730
  31 C :    0.080296
  32 O :   -0.172596
  33 N :   -0.001951
  34 C :    0.036257
  35 C :   -0.059958
  36 C :    0.082290
  37 C :   -0.013707
  38 C :    0.010725
  39 C :    0.032496
  40 C :   -0.033263
  41 C :    0.012241
  42 C :   -0.010959
  43 C :    0.045581
  44 C :   -0.061224
  45 C :    0.079814
  46 O :   -0.129117
  47 C :   -0.119228
  48 C :   -0.270849
  49 S :    0.475926
  50 C :   -0.151670
  51 C :   -0.056333
  52 C :    0.064365
  53 C :   -0.119094
  54 C :   -0.013821
  55 N :   -0.045249
  56 C :   -0.019910
  57 N :   -0.033372
  58 Cl:    0.193340
  59 H :    0.038629
  60 H :    0.053644
  61 H :    0.017588
  62 H :    0.037305
  63 H :    0.014766
  64 H :    0.032957
  65 H :    0.031046
  66 H :    0.039039
  67 H :    0.023670
  68 H :    0.033612
  69 H :    0.032108
  70 H :    0.023088
  71 H :    0.037898
  72 H :    0.056865
  73 H :    0.064967
  74 H :    0.037878

  Mayer bond orders larger than 0.100000
B(  0-C ,  1-C ) :   1.5539 B(  0-C ,  5-C ) :   1.2233 B(  0-C ,  9-C ) :   0.9912
B(  1-C ,  2-S ) :   1.1577 B(  1-C , 59-H ) :   0.9529 B(  2-S ,  3-C ) :   1.1517
B(  3-C ,  4-Cl) :   1.1289 B(  3-C ,  5-C ) :   1.4710 B(  5-C ,  6-C ) :   0.9759
B(  6-C ,  7-O ) :   2.1103 B(  6-C ,  8-C ) :   0.9798 B(  8-C ,  9-C ) :   1.0779
B(  8-C , 15-C ) :   1.5328 B(  9-C , 10-C ) :   1.6504 B( 10-C , 11-C ) :   1.1499
B( 10-C , 13-C ) :   1.1394 B( 11-C , 12-N ) :   2.9896 B( 13-C , 14-N ) :   2.9651
B( 15-C , 16-C ) :   1.2426 B( 15-C , 60-H ) :   0.9354 B( 16-C , 17-C ) :   1.3418
B( 16-C , 21-C ) :   0.1229 B( 16-C , 22-S ) :   1.0790 B( 17-C , 18-F ) :   1.1602
B( 17-C , 19-C ) :   1.2663 B( 19-C , 20-F ) :   1.1963 B( 19-C , 21-C ) :   1.3933
B( 21-C , 22-S ) :   1.0819 B( 21-C , 23-C ) :   1.0872 B( 23-C , 24-N ) :   1.1918
B( 23-C , 30-C ) :   1.4053 B( 24-N , 25-C ) :   0.9385 B( 24-N , 27-C ) :   1.0569
B( 25-C , 26-C ) :   1.1166 B( 25-C , 61-H ) :   0.9463 B( 25-C , 62-H ) :   0.9278
B( 26-C , 63-H ) :   0.9634 B( 26-C , 64-H ) :   0.9670 B( 26-C , 65-H ) :   0.9637
B( 27-C , 28-O ) :   2.0128 B( 27-C , 29-C ) :   0.9944 B( 28-O , 72-H ) :   0.1132
B( 29-C , 30-C ) :   1.2486 B( 29-C , 36-C ) :   1.3244 B( 30-C , 31-C ) :   0.9586
B( 31-C , 32-O ) :   2.1683 B( 31-C , 33-N ) :   1.0164 B( 33-N , 34-C ) :   0.9431
B( 33-N , 36-C ) :   1.1778 B( 34-C , 35-C ) :   1.1188 B( 34-C , 66-H ) :   0.9271
B( 34-C , 67-H ) :   0.9509 B( 35-C , 68-H ) :   0.9640 B( 35-C , 69-H ) :   0.9686
B( 35-C , 70-H ) :   0.9690 B( 36-C , 37-C ) :   1.1592 B( 37-C , 38-C ) :   1.6386
B( 37-C , 71-H ) :   0.9680 B( 38-C , 39-C ) :   1.0025 B( 38-C , 72-H ) :   0.9136
B( 39-C , 40-C ) :   2.0939 B( 39-C , 42-C ) :   0.1743 B( 40-C , 41-C ) :   0.8886
B( 41-C , 42-C ) :   2.0728 B( 42-C , 43-C ) :   0.9459 B( 43-C , 44-C ) :   1.6895
B( 43-C , 73-H ) :   0.9483 B( 44-C , 45-C ) :   0.9359 B( 44-C , 52-C ) :   1.0368
B( 45-C , 46-O ) :   2.2787 B( 45-C , 47-C ) :   0.9289 B( 47-C , 48-C ) :   1.4807
B( 47-C , 51-C ) :   1.2203 B( 48-C , 49-S ) :   1.1535 B( 48-C , 58-Cl) :   1.1310
B( 49-S , 50-C ) :   1.1572 B( 50-C , 51-C ) :   1.5553 B( 50-C , 74-H ) :   0.9541
B( 51-C , 52-C ) :   1.0110 B( 52-C , 53-C ) :   1.6621 B( 53-C , 54-C ) :   1.1328
B( 53-C , 56-C ) :   1.1627 B( 54-C , 55-N ) :   2.9944 B( 56-C , 57-N ) :   2.9901

-----------------------------------------------------------------------------
         ABSORPTION SPECTRUM VIA TRANSITION ELECTRIC DIPOLE MOMENTS
-----------------------------------------------------------------------------
State   Energy  Wavelength   fosc         T2         TX        TY        TZ
        (cm-1)    (nm)                  (au**2)     (au)      (au)      (au)
-----------------------------------------------------------------------------
   0   13520.5    739.6   1.158479696  28.20784   2.02026   3.83405   3.07025
   1   18383.5    544.0   0.077836818   1.39390  -0.04246  -0.92016   0.73851
   2   22826.9    438.1   0.051323065   0.74019  -0.19739   0.50809  -0.66563
   3   23738.8    421.3   0.212225322   2.94317   0.77470  -0.44662   1.46408
   4   24738.5    404.2   0.214570555   2.85544   0.62307   0.33937   1.53364
   5   25336.7    394.7   0.460879826   5.98844   1.02626   1.65358   1.48355
   6   25845.7    386.9   0.006704510   0.08540  -0.09235   0.09348  -0.26102
   7   27067.0    369.5   0.032419728   0.39432   0.01069  -0.33067  -0.53372
   8   27386.9    365.1   0.102638593   1.23380   0.03291   0.36863   1.04729
   9   27728.2    360.6   0.028423236   0.33746  -0.23961  -0.01226  -0.52906
  10   28471.8    351.2   0.009051500   0.10466   0.14344  -0.15904  -0.24247
  11   28811.0    347.1   0.004762746   0.05442   0.11207  -0.10207   0.17732
  12   29382.4    340.3   0.128316589   1.43771  -0.85296  -0.84224   0.02836
  13   29609.2    337.7   0.094392432   1.04951   0.40101   0.79162   0.51189
  14   29756.7    336.1   0.046988543   0.51986  -0.42403   0.48631   0.32180
  15   30631.2    326.5   0.005964096   0.06410  -0.14589   0.16055   0.13054
  16   30789.2    324.8   0.076604917   0.81909   0.17768  -0.10296   0.88143
  17   31783.0    314.6   0.201394462   2.08606  -0.05555  -0.55011  -1.33430
  18   32044.3    312.1   0.023586354   0.24232   0.25930   0.16470   0.38465
  19   32210.4    310.5   0.021846142   0.22328   0.37805  -0.15579   0.23683
  20   32710.7    305.7   0.029539787   0.29730   0.08633  -0.51837   0.14541
  21   33064.3    302.4   0.029612670   0.29485   0.29931   0.41461  -0.18266
  22   34204.5    292.4   0.031442137   0.30262   0.02258  -0.23016  -0.49914
  23   35063.3    285.2   0.253000762   2.37544   0.88336   0.43770  -1.18471
  24   35190.8    284.2   0.113569970   1.06245  -0.13773  -0.35690  -0.95713
  25   35540.6    281.4   0.038176403   0.35363  -0.20958  -0.53927   0.13747
  26   35636.8    280.6   0.186147129   1.71962   0.82725  -0.00865  -1.01745
  27   36125.1    276.8   0.248662919   2.26609  -0.17874  -0.38620  -1.44395
  28   36384.9    274.8   0.039176075   0.35447   0.41126   0.13897   0.40746
  29   36666.1    272.7   0.041623554   0.37372  -0.48940   0.24778   0.26985
  30   37207.6    268.8   0.003857251   0.03413   0.03542   0.16840   0.06719
  31   37471.8    266.9   0.115037292   1.01067   0.55011   0.71622   0.44167
  32   37494.7    266.7   0.653497052   5.73786  -0.69768   0.34592   2.26527
  33   37937.5    263.6   0.022808876   0.19793   0.07592   0.08334  -0.43037
  34   38226.8    261.6   0.123078846   1.05996   0.24856  -0.30606  -0.95106
  35   38434.6    260.2   0.004946578   0.04237   0.05726  -0.14331  -0.13621
  36   38778.2    257.9   0.064595126   0.54839  -0.22955  -0.20959  -0.67214
  37   38835.7    257.5   0.008702396   0.07377  -0.13684  -0.01643  -0.23404
  38   38971.0    256.6   0.094812840   0.80094   0.05778   0.05285  -0.89152
  39   39525.2    253.0   0.023640143   0.19690   0.01730  -0.43924  -0.06060

FINAL SINGLE POINT ENERGY     -4550.270937211271

DIPOLE MOMENT
-------------
                                X             Y             Z
Electronic contribution:      6.12906      14.53800     -19.93716
Nuclear contribution   :     -4.64938     -15.01286      17.77884
                        -----------------------------------------
Total Dipole Moment    :      1.47968      -0.47486      -2.15831
                        -----------------------------------------
Magnitude (a.u.)       :      2.65956
Magnitude (Debye)      :      6.76007

Rotational constants in cm-1:     0.002485     0.000281     0.000261
Rotational constants in MHz :    74.508066     8.410314     7.809797

                             ****ORCA TERMINATED NORMALLY****
TOTAL RUN TIME: 0 days 0 hours 8 minutes 22 seconds 127 msec
