                         Program Version 4.2.0 -  RELEASE  -
|  1> # ORCA input file
|  2> # SCF done       -162.940914970938          0.000633257803
|  3> ! CAM-B3LYP def2-SVP def2/J RIJCOSX Grid4 TightSCF
|  4> %maxcore 5000
|  5> %tddft
|  6>     Mode sTDDFT
|  7>     Ethresh 5.0
|  8>     maxcore 5000
|  9> end
| 10>
| 11> %pal
| 12>   nprocs 6
| 13>   end
| 14> * xyz 0 1
| 15>    C        0.21825        -0.46904         1.18369
| 16>    C       -0.99170        -0.09266         1.67828
| 17>    S       -1.43131        -1.04759         3.04676
| 18>    C        0.04759        -1.97689         2.95306
| 19>   Cl        0.37838        -3.21857         4.05715
| 20>    C        0.81600        -1.54907         1.91306
| 21>    C        2.11238        -1.89327         1.31505
| 22>    O        2.90160        -2.74404         1.65443
| 23>    C        2.25547        -0.95104         0.16632
| 24>    C        1.09906        -0.07858         0.09945
| 25>    C        0.84774         0.93270        -0.79042
| 26>    C       -0.33549         1.69724        -0.72063
| 27>    N       -1.29331         2.32722        -0.67633
| 28>    C        1.70386         1.32292        -1.83857
| 29>    N        2.36927         1.67805        -2.70410
| 30>    C        3.33752        -0.97853        -0.66477
| 31>    C        4.38125        -1.86197        -0.50037
| 32>    C        5.33583        -2.62080        -0.40643
| 33>    C        6.34940        -3.47538        -0.25636
| 34>    C        7.26651        -4.26843        -0.10577
| 35>    C        8.30438        -5.16367         0.05228
| 36>    N        8.48793        -5.91243         1.19126
| 37>    C        7.62267        -5.89617         2.34579
| 38>    C        6.32019        -6.64771         2.08793
| 39>    C        9.61414        -6.74146         1.09027
| 40>    O        9.98687        -7.48417         1.97785
| 41>    C       10.14790        -6.46142        -0.22707
| 42>    C        9.32359        -5.48335        -0.83710
| 43>    C        9.85099        -5.19620        -2.15454
| 44>    O        9.49552        -4.44792        -3.03576
| 45>    N       10.97871        -6.04089        -2.25525
| 46>    C       11.82279        -6.01039        -3.42451
| 47>    C       13.08636        -5.18519        -3.19177
| 48>    C       11.16821        -6.79295        -1.11985
| 49>    C       12.22252        -7.72582        -0.96394
| 50>    C       12.39525        -8.45264         0.17154
| 51>    C       13.43902        -9.39241         0.37091
| 52>    S       13.54270       -10.24745         1.88484
| 53>    C       14.96355       -11.10061         1.37616
| 54>    C       15.32726       -10.72924         0.07054
| 55>    C       14.46282        -9.77334        -0.47647
| 56>    C       16.47211       -11.25467        -0.66352
| 57>    O       17.28327       -12.05186        -0.26282
| 58>    C       15.62448       -12.04090         2.19552
| 59>    C       15.23097       -12.37309         3.45483
| 60>    C       15.92469       -13.32737         4.22900
| 61>    C       15.56440       -13.85059         5.43594
| 62>    C       16.60376       -14.54167         6.26148
| 63>    O       17.69709       -14.89446         5.89060
| 64>    C       16.00661       -14.63215         7.59948
| 65>    C       16.38591       -15.04840         8.83992
| 66>    S       15.08311       -14.82716         9.98495
| 67>    C       14.03904       -14.18430         8.76914
| 68>    C       14.66081       -14.13832         7.56125
| 69>    C       14.33291       -13.76484         6.19587
| 70>    C       13.05519       -13.57342         5.73737
| 71>    C       11.95761       -13.56001         6.62403
| 72>    N       11.05888       -13.52883         7.33633
| 73>    C       12.67168       -13.48204         4.38456
| 74>    N       12.29045       -13.44952         3.30231
| 75>   Cl       17.87529       -15.70112         9.31435
| 76>    H       -1.65717         0.67570         1.33787
| 77>    H        3.41276        -0.29563        -1.50245
| 78>    H        7.41066        -4.85754         2.61766
| 79>    H        8.18111        -6.37698         3.15341
| 80>    H        5.75847        -6.17689         1.28413
| 81>    H        5.71019        -6.63868         2.98640
| 82>    H        6.52834        -7.68042         1.81777
| 83>    H       11.22492        -5.54722        -4.21457
| 84>    H       12.07130        -7.03204        -3.72589
| 85>    H       12.81841        -4.16122        -2.94377
| 86>    H       13.69162        -5.17602        -4.09394
| 87>    H       13.67784        -5.59436        -2.37531
| 88>    H       12.90264        -7.85079        -1.79329
| 89>    H       11.70430        -8.31957         0.99410
| 90>    H       14.58969        -9.37394        -1.46679
| 91>    H       16.54629       -10.83780        -1.68674
| 92>    H       16.48279       -12.52903         1.75137
| 93>    H       14.37291       -11.87390         3.88405
| 94>    H       16.89690       -13.64313         3.86392
| 95>    H       13.04682       -13.87989         9.03695
| 96> *
| 97>
| 98>                          ****END OF INPUT****

CARTESIAN COORDINATES (ANGSTROEM)
---------------------------------
  C      0.218250   -0.469040    1.183690
  C     -0.991700   -0.092660    1.678280
  S     -1.431310   -1.047590    3.046760
  C      0.047590   -1.976890    2.953060
  Cl     0.378380   -3.218570    4.057150
  C      0.816000   -1.549070    1.913060
  C      2.112380   -1.893270    1.315050
  O      2.901600   -2.744040    1.654430
  C      2.255470   -0.951040    0.166320
  C      1.099060   -0.078580    0.099450
  C      0.847740    0.932700   -0.790420
  C     -0.335490    1.697240   -0.720630
  N     -1.293310    2.327220   -0.676330
  C      1.703860    1.322920   -1.838570
  N      2.369270    1.678050   -2.704100
  C      3.337520   -0.978530   -0.664770
  C      4.381250   -1.861970   -0.500370
  C      5.335830   -2.620800   -0.406430
  C      6.349400   -3.475380   -0.256360
  C      7.266510   -4.268430   -0.105770
  C      8.304380   -5.163670    0.052280
  N      8.487930   -5.912430    1.191260
  C      7.622670   -5.896170    2.345790
  C      6.320190   -6.647710    2.087930
  C      9.614140   -6.741460    1.090270
  O      9.986870   -7.484170    1.977850
  C     10.147900   -6.461420   -0.227070
  C      9.323590   -5.483350   -0.837100
  C      9.850990   -5.196200   -2.154540
  O      9.495520   -4.447920   -3.035760
  N     10.978710   -6.040890   -2.255250
  C     11.822790   -6.010390   -3.424510
  C     13.086360   -5.185190   -3.191770
  C     11.168210   -6.792950   -1.119850
  C     12.222520   -7.725820   -0.963940
  C     12.395250   -8.452640    0.171540
  C     13.439020   -9.392410    0.370910
  S     13.542700  -10.247450    1.884840
  C     14.963550  -11.100610    1.376160
  C     15.327260  -10.729240    0.070540
  C     14.462820   -9.773340   -0.476470
  C     16.472110  -11.254670   -0.663520
  O     17.283270  -12.051860   -0.262820
  C     15.624480  -12.040900    2.195520
  C     15.230970  -12.373090    3.454830
  C     15.924690  -13.327370    4.229000
  C     15.564400  -13.850590    5.435940
  C     16.603760  -14.541670    6.261480
  O     17.697090  -14.894460    5.890600
  C     16.006610  -14.632150    7.599480
  C     16.385910  -15.048400    8.839920
  S     15.083110  -14.827160    9.984950
  C     14.039040  -14.184300    8.769140
  C     14.660810  -14.138320    7.561250
  C     14.332910  -13.764840    6.195870
  C     13.055190  -13.573420    5.737370
  C     11.957610  -13.560010    6.624030
  N     11.058880  -13.528830    7.336330
  C     12.671680  -13.482040    4.384560
  N     12.290450  -13.449520    3.302310
  Cl    17.875290  -15.701120    9.314350
  H     -1.657170    0.675700    1.337870
  H      3.412760   -0.295630   -1.502450
  H      7.410660   -4.857540    2.617660
  H      8.181110   -6.376980    3.153410
  H      5.758470   -6.176890    1.284130
  H      5.710190   -6.638680    2.986400
  H      6.528340   -7.680420    1.817770
  H     11.224920   -5.547220   -4.214570
  H     12.071300   -7.032040   -3.725890
  H     12.818410   -4.161220   -2.943770
  H     13.691620   -5.176020   -4.093940
  H     13.677840   -5.594360   -2.375310
  H     12.902640   -7.850790   -1.793290
  H     11.704300   -8.319570    0.994100
  H     14.589690   -9.373940   -1.466790
  H     16.546290  -10.837800   -1.686740
  H     16.482790  -12.529030    1.751370
  H     14.372910  -11.873900    3.884050
  H     16.896900  -13.643130    3.863920
  H     13.046820  -13.879890    9.036950

 Total Charge           Charge          ....    0
 Multiplicity           Mult            ....    1
 Number of Electrons    NEL             ....  454
 Basis Dimension        Dim             ....  974

ORBITAL ENERGIES
----------------

  NO   OCC          E(Eh)            E(eV)
   0   2.0000    -101.619452     -2765.2059
   1   2.0000    -101.616767     -2765.1328
   2   2.0000     -88.996016     -2421.7047
   3   2.0000     -88.992735     -2421.6154
   4   2.0000     -88.987595     -2421.4756
   5   2.0000     -19.231732      -523.3220
   6   2.0000     -19.223505      -523.0982
   7   2.0000     -19.218509      -522.9622
   8   2.0000     -19.203127      -522.5437
   9   2.0000     -19.195050      -522.3239
  10   2.0000     -14.464715      -393.6049
  11   2.0000     -14.459823      -393.4718
  12   2.0000     -14.425808      -392.5462
  13   2.0000     -14.424129      -392.5005
  14   2.0000     -14.421440      -392.4273
  15   2.0000     -14.420645      -392.4057
  16   2.0000     -10.386841      -282.6403
  17   2.0000     -10.380321      -282.4629
  18   2.0000     -10.379182      -282.4319
  19   2.0000     -10.378464      -282.4124
  20   2.0000     -10.377335      -282.3816
  21   2.0000     -10.375581      -282.3339
  22   2.0000     -10.374789      -282.3124
  23   2.0000     -10.357737      -281.8484
  24   2.0000     -10.354061      -281.7483
  25   2.0000     -10.353806      -281.7414
  26   2.0000     -10.353231      -281.7257
  27   2.0000     -10.351065      -281.6668
  28   2.0000     -10.350478      -281.6508
  29   2.0000     -10.338843      -281.3342
  30   2.0000     -10.338189      -281.3164
  31   2.0000     -10.333567      -281.1907
  32   2.0000     -10.332498      -281.1616
  33   2.0000     -10.329057      -281.0679
  34   2.0000     -10.327324      -281.0208
  35   2.0000     -10.325920      -280.9826
  36   2.0000     -10.323352      -280.9127
  37   2.0000     -10.323087      -280.9055
  38   2.0000     -10.320501      -280.8351
  39   2.0000     -10.319002      -280.7943
  40   2.0000     -10.316772      -280.7337
  41   2.0000     -10.316108      -280.7156
  42   2.0000     -10.315545      -280.7003
  43   2.0000     -10.314009      -280.6584
  44   2.0000     -10.313191      -280.6362
  45   2.0000     -10.313113      -280.6341
  46   2.0000     -10.313034      -280.6319
  47   2.0000     -10.311289      -280.5844
  48   2.0000     -10.309577      -280.5379
  49   2.0000     -10.308641      -280.5124
  50   2.0000     -10.308293      -280.5029
  51   2.0000     -10.308055      -280.4964
  52   2.0000     -10.306939      -280.4661
  53   2.0000     -10.305408      -280.4244
  54   2.0000     -10.304440      -280.3981
  55   2.0000     -10.302824      -280.3541
  56   2.0000     -10.299757      -280.2706
  57   2.0000     -10.281709      -279.7795
  58   2.0000     -10.274042      -279.5709
  59   2.0000     -10.272556      -279.5305
  60   2.0000     -10.258648      -279.1520
  61   2.0000      -9.574192      -260.5270
  62   2.0000      -9.571549      -260.4551
  63   2.0000      -8.091767      -220.1882
  64   2.0000      -8.088471      -220.0985
  65   2.0000      -8.082978      -219.9490
  66   2.0000      -7.344837      -199.8632
  67   2.0000      -7.342162      -199.7904
  68   2.0000      -7.334234      -199.5746
  69   2.0000      -7.333687      -199.5598
  70   2.0000      -7.331596      -199.5029
  71   2.0000      -7.331072      -199.4886
  72   2.0000      -6.061153      -164.9324
  73   2.0000      -6.057850      -164.8425
  74   2.0000      -6.056533      -164.8066
  75   2.0000      -6.054003      -164.7378
  76   2.0000      -6.053275      -164.7180
  77   2.0000      -6.051922      -164.6812
  78   2.0000      -6.050689      -164.6476
  79   2.0000      -6.047844      -164.5702
  80   2.0000      -6.045610      -164.5094
  81   2.0000      -1.145001       -31.1571
  82   2.0000      -1.143859       -31.1260
  83   2.0000      -1.139582       -31.0096
  84   2.0000      -1.135460       -30.8974
  85   2.0000      -1.134267       -30.8650
  86   2.0000      -1.074756       -29.2456
  87   2.0000      -1.064831       -28.9755
  88   2.0000      -1.041072       -28.3290
  89   2.0000      -1.037876       -28.2420
  90   2.0000      -1.021569       -27.7983
  91   2.0000      -1.018566       -27.7166
  92   2.0000      -1.016881       -27.6707
  93   2.0000      -1.003256       -27.3000
  94   2.0000      -0.999685       -27.2028
  95   2.0000      -0.992188       -26.9988
  96   2.0000      -0.988366       -26.8948
  97   2.0000      -0.959096       -26.0983
  98   2.0000      -0.956062       -26.0158
  99   2.0000      -0.941886       -25.6300
 100   2.0000      -0.936185       -25.4749
 101   2.0000      -0.926186       -25.2028
 102   2.0000      -0.921708       -25.0809
 103   2.0000      -0.909710       -24.7545
 104   2.0000      -0.906072       -24.6555
 105   2.0000      -0.898408       -24.4469
 106   2.0000      -0.883308       -24.0360
 107   2.0000      -0.879527       -23.9331
 108   2.0000      -0.874651       -23.8005
 109   2.0000      -0.857692       -23.3390
 110   2.0000      -0.839268       -22.8376
 111   2.0000      -0.835895       -22.7459
 112   2.0000      -0.832378       -22.6502
 113   2.0000      -0.826463       -22.4892
 114   2.0000      -0.818683       -22.2775
 115   2.0000      -0.803944       -21.8764
 116   2.0000      -0.787698       -21.4344
 117   2.0000      -0.777150       -21.1473
 118   2.0000      -0.766654       -20.8617
 119   2.0000      -0.758251       -20.6331
 120   2.0000      -0.757666       -20.6171
 121   2.0000      -0.743232       -20.2244
 122   2.0000      -0.732887       -19.9429
 123   2.0000      -0.720741       -19.6124
 124   2.0000      -0.714712       -19.4483
 125   2.0000      -0.701963       -19.1014
 126   2.0000      -0.697271       -18.9737
 127   2.0000      -0.693858       -18.8808
 128   2.0000      -0.687862       -18.7177
 129   2.0000      -0.679459       -18.4890
 130   2.0000      -0.676216       -18.4008
 131   2.0000      -0.674659       -18.3584
 132   2.0000      -0.660111       -17.9625
 133   2.0000      -0.654185       -17.8013
 134   2.0000      -0.643304       -17.5052
 135   2.0000      -0.637328       -17.3426
 136   2.0000      -0.631840       -17.1932
 137   2.0000      -0.627348       -17.0710
 138   2.0000      -0.618529       -16.8310
 139   2.0000      -0.617675       -16.8078
 140   2.0000      -0.611494       -16.6396
 141   2.0000      -0.608179       -16.5494
 142   2.0000      -0.599605       -16.3161
 143   2.0000      -0.597457       -16.2576
 144   2.0000      -0.591518       -16.0960
 145   2.0000      -0.581424       -15.8213
 146   2.0000      -0.574769       -15.6403
 147   2.0000      -0.569892       -15.5075
 148   2.0000      -0.560755       -15.2589
 149   2.0000      -0.554244       -15.0817
 150   2.0000      -0.553630       -15.0650
 151   2.0000      -0.552531       -15.0351
 152   2.0000      -0.545960       -14.8563
 153   2.0000      -0.538915       -14.6646
 154   2.0000      -0.537116       -14.6157
 155   2.0000      -0.535856       -14.5814
 156   2.0000      -0.535236       -14.5645
 157   2.0000      -0.534322       -14.5396
 158   2.0000      -0.531482       -14.4623
 159   2.0000      -0.530086       -14.4244
 160   2.0000      -0.529386       -14.4053
 161   2.0000      -0.526793       -14.3348
 162   2.0000      -0.521510       -14.1910
 163   2.0000      -0.519103       -14.1255
 164   2.0000      -0.518632       -14.1127
 165   2.0000      -0.515486       -14.0271
 166   2.0000      -0.509636       -13.8679
 167   2.0000      -0.508673       -13.8417
 168   2.0000      -0.506307       -13.7773
 169   2.0000      -0.499303       -13.5867
 170   2.0000      -0.498122       -13.5546
 171   2.0000      -0.495307       -13.4780
 172   2.0000      -0.494198       -13.4478
 173   2.0000      -0.488127       -13.2826
 174   2.0000      -0.483963       -13.1693
 175   2.0000      -0.483120       -13.1464
 176   2.0000      -0.481621       -13.1056
 177   2.0000      -0.480966       -13.0877
 178   2.0000      -0.474617       -12.9150
 179   2.0000      -0.471595       -12.8328
 180   2.0000      -0.470235       -12.7957
 181   2.0000      -0.467608       -12.7243
 182   2.0000      -0.460479       -12.5303
 183   2.0000      -0.459459       -12.5025
 184   2.0000      -0.458075       -12.4648
 185   2.0000      -0.457098       -12.4383
 186   2.0000      -0.455108       -12.3841
 187   2.0000      -0.453880       -12.3507
 188   2.0000      -0.452142       -12.3034
 189   2.0000      -0.450831       -12.2677
 190   2.0000      -0.447790       -12.1850
 191   2.0000      -0.447259       -12.1705
 192   2.0000      -0.445261       -12.1162
 193   2.0000      -0.443439       -12.0666
 194   2.0000      -0.442493       -12.0408
 195   2.0000      -0.441479       -12.0133
 196   2.0000      -0.437948       -11.9172
 197   2.0000      -0.436583       -11.8800
 198   2.0000      -0.435610       -11.8536
 199   2.0000      -0.432592       -11.7714
 200   2.0000      -0.431029       -11.7289
 201   2.0000      -0.429878       -11.6976
 202   2.0000      -0.424558       -11.5528
 203   2.0000      -0.421673       -11.4743
 204   2.0000      -0.415056       -11.2942
 205   2.0000      -0.410674       -11.1750
 206   2.0000      -0.406393       -11.0585
 207   2.0000      -0.405586       -11.0366
 208   2.0000      -0.402606       -10.9555
 209   2.0000      -0.383949       -10.4478
 210   2.0000      -0.377760       -10.2794
 211   2.0000      -0.357090        -9.7169
 212   2.0000      -0.356483        -9.7004
 213   2.0000      -0.354792        -9.6544
 214   2.0000      -0.348570        -9.4851
 215   2.0000      -0.343716        -9.3530
 216   2.0000      -0.343259        -9.3406
 217   2.0000      -0.340964        -9.2781
 218   2.0000      -0.339903        -9.2492
 219   2.0000      -0.332170        -9.0388
 220   2.0000      -0.325615        -8.8604
 221   2.0000      -0.324487        -8.8297
 222   2.0000      -0.318635        -8.6705
 223   2.0000      -0.313715        -8.5366
 224   2.0000      -0.306954        -8.3526
 225   2.0000      -0.286965        -7.8087
 226   2.0000      -0.247341        -6.7305
 227   0.0000      -0.124123        -3.3776
 228   0.0000      -0.108401        -2.9497
 229   0.0000      -0.079550        -2.1647
 230   0.0000      -0.057898        -1.5755
 231   0.0000      -0.052637        -1.4323

MULLIKEN ATOMIC CHARGES
-----------------------
   0 C :    0.030814
   1 C :   -0.130895
   2 S :    0.188840
   3 C :   -0.173900
   4 Cl:   -0.000457
   5 C :    0.074057
   6 C :    0.151232
   7 O :   -0.114249
   8 C :   -0.110299
   9 C :    0.304241
  10 C :   -0.323625
  11 C :   -0.193794
  12 N :    0.160261
  13 C :   -0.188283
  14 N :    0.167865
  15 C :   -0.131831
  16 C :    0.045029
  17 C :    0.045190
  18 C :   -0.096030
  19 C :    0.140635
  20 C :    0.004670
  21 N :   -0.257204
  22 C :    0.113893
  23 C :   -0.003277
  24 C :    0.175057
  25 O :   -0.213615
  26 C :   -0.103508
  27 C :    0.030052
  28 C :    0.126271
  29 O :   -0.161102
  30 N :   -0.272809
  31 C :    0.098702
  32 C :    0.002114
  33 C :    0.159720
  34 C :   -0.028898
  35 C :    0.090370
  36 C :   -0.076485
  37 S :    0.208651
  38 C :   -0.090909
  39 C :    0.037011
  40 C :   -0.003753
  41 C :    0.158235
  42 O :   -0.174057
  43 C :    0.010140
  44 C :    0.015099
  45 C :    0.022471
  46 C :   -0.120569
  47 C :    0.135181
  48 O :   -0.125805
  49 C :    0.089297
  50 C :   -0.174102
  51 S :    0.184269
  52 C :   -0.127333
  53 C :    0.016582
  54 C :    0.277784
  55 C :   -0.319225
  56 C :   -0.187938
  57 N :    0.155336
  58 C :   -0.219597
  59 N :    0.176906
  60 Cl:    0.000022
  61 H :    0.055143
  62 H :    0.061980
  63 H :    0.030057
  64 H :    0.041824
  65 H :    0.030236
  66 H :    0.026348
  67 H :    0.024716
  68 H :    0.048259
  69 H :    0.023038
  70 H :    0.033952
  71 H :    0.026941
  72 H :    0.013012
  73 H :   -0.028154
  74 H :    0.017497
  75 H :   -0.008620
  76 H :   -0.011234
  77 H :    0.033906
  78 H :    0.028574
  79 H :    0.026913
  80 H :    0.053166
Sum of atomic charges:    0.0000000

LOEWDIN ATOMIC CHARGES
----------------------
   0 C :   -0.058966
   1 C :   -0.148308
   2 S :    0.476889
   3 C :   -0.272389
   4 Cl:    0.191680
   5 C :   -0.116430
   6 C :    0.077691
   7 O :   -0.118003
   8 C :   -0.063946
   9 C :    0.070105
  10 C :   -0.130172
  11 C :   -0.015746
  12 N :   -0.046932
  13 C :   -0.022068
  14 N :   -0.039784
  15 C :    0.045317
  16 C :    0.012976
  17 C :    0.002860
  18 C :   -0.014954
  19 C :    0.008850
  20 C :    0.034913
  21 N :    0.010291
  22 C :    0.039854
  23 C :   -0.059793
  24 C :    0.075846
  25 O :   -0.206310
  26 C :   -0.127886
  27 C :   -0.081367
  28 C :    0.086044
  29 O :   -0.167065
  30 N :   -0.006375
  31 C :    0.035814
  32 C :   -0.061176
  33 C :    0.093016
  34 C :   -0.046403
  35 C :    0.024511
  36 C :   -0.165468
  37 S :    0.511778
  38 C :   -0.136252
  39 C :   -0.103668
  40 C :   -0.023478
  41 C :    0.112663
  42 O :   -0.126865
  43 C :    0.013560
  44 C :   -0.022155
  45 C :    0.068730
  46 C :   -0.086036
  47 C :    0.078780
  48 O :   -0.132351
  49 C :   -0.117635
  50 C :   -0.272690
  51 S :    0.472872
  52 C :   -0.151492
  53 C :   -0.057451
  54 C :    0.069533
  55 C :   -0.136300
  56 C :   -0.015983
  57 N :   -0.049511
  58 C :   -0.027223
  59 N :   -0.046070
  60 Cl:    0.191594
  61 H :    0.038271
  62 H :    0.063354
  63 H :    0.029575
  64 H :    0.036470
  65 H :    0.027953
  66 H :    0.032721
  67 H :    0.029338
  68 H :    0.040076
  69 H :    0.022498
  70 H :    0.034260
  71 H :    0.031990
  72 H :    0.020652
  73 H :    0.028133
  74 H :    0.040058
  75 H :    0.032250
  76 H :    0.001172
  77 H :    0.045511
  78 H :    0.027085
  79 H :    0.049899
  80 H :    0.037259

  Mayer bond orders larger than 0.100000
B(  0-C ,  1-C ) :   1.5419 B(  0-C ,  5-C ) :   1.2261 B(  0-C ,  9-C ) :   1.0044
B(  1-C ,  2-S ) :   1.1642 B(  1-C , 61-H ) :   0.9546 B(  2-S ,  3-C ) :   1.1490
B(  3-C ,  4-Cl) :   1.1289 B(  3-C ,  5-C ) :   1.4832 B(  5-C ,  6-C ) :   0.9401
B(  6-C ,  7-O ) :   2.2727 B(  6-C ,  8-C ) :   0.9238 B(  8-C ,  9-C ) :   1.0534
B(  8-C , 15-C ) :   1.6416 B(  9-C , 10-C ) :   1.6574 B( 10-C , 11-C ) :   1.1437
B( 10-C , 13-C ) :   1.1473 B( 11-C , 12-N ) :   2.9895 B( 13-C , 14-N ) :   2.9722
B( 15-C , 16-C ) :   1.0411 B( 15-C , 62-H ) :   0.9362 B( 16-C , 17-C ) :   2.0265
B( 16-C , 19-C ) :   0.1707 B( 17-C , 18-C ) :   0.9287 B( 18-C , 19-C ) :   2.0561
B( 19-C , 20-C ) :   0.8132 B( 20-C , 21-N ) :   1.1937 B( 20-C , 27-C ) :   1.4161
B( 21-N , 22-C ) :   0.9403 B( 21-N , 24-C ) :   1.0694 B( 22-C , 23-C ) :   1.1218
B( 22-C , 63-H ) :   0.9476 B( 22-C , 64-H ) :   0.9329 B( 23-C , 65-H ) :   0.9693
B( 23-C , 66-H ) :   0.9672 B( 23-C , 67-H ) :   0.9652 B( 24-C , 25-O ) :   2.0182
B( 24-C , 26-C ) :   0.9929 B( 25-O , 74-H ) :   0.1206 B( 26-C , 27-C ) :   1.2490
B( 26-C , 33-C ) :   1.3205 B( 27-C , 28-C ) :   0.9294 B( 28-C , 29-O ) :   2.1944
B( 28-C , 30-N ) :   1.0230 B( 30-N , 31-C ) :   0.9450 B( 30-N , 33-C ) :   1.1692
B( 31-C , 32-C ) :   1.1202 B( 31-C , 68-H ) :   0.9262 B( 31-C , 69-H ) :   0.9502
B( 32-C , 70-H ) :   0.9631 B( 32-C , 71-H ) :   0.9682 B( 32-C , 72-H ) :   0.9686
B( 33-C , 34-C ) :   1.1759 B( 34-C , 35-C ) :   1.6117 B( 34-C , 73-H ) :   0.9602
B( 35-C , 36-C ) :   1.1303 B( 35-C , 74-H ) :   0.9347 B( 36-C , 37-S ) :   1.1420
B( 36-C , 40-C ) :   1.4576 B( 37-S , 38-C ) :   1.1685 B( 38-C , 39-C ) :   1.3866
B( 38-C , 43-C ) :   1.1725 B( 39-C , 40-C ) :   1.2651 B( 39-C , 41-C ) :   0.9913
B( 40-C , 75-H ) :   0.9892 B( 41-C , 42-O ) :   2.1315 B( 41-C , 76-H ) :   0.9620
B( 43-C , 44-C ) :   1.5909 B( 43-C , 77-H ) :   0.9699 B( 44-C , 45-C ) :   1.1454
B( 44-C , 78-H ) :   0.9586 B( 45-C , 46-C ) :   1.6112 B( 45-C , 79-H ) :   0.9567
B( 46-C , 47-C ) :   0.9370 B( 46-C , 54-C ) :   1.0442 B( 47-C , 48-O ) :   2.2785
B( 47-C , 49-C ) :   0.9269 B( 49-C , 50-C ) :   1.4855 B( 49-C , 53-C ) :   1.2207
B( 50-C , 51-S ) :   1.1497 B( 50-C , 60-Cl) :   1.1292 B( 51-S , 52-C ) :   1.1589
B( 52-C , 53-C ) :   1.5544 B( 52-C , 80-H ) :   0.9541 B( 53-C , 54-C ) :   1.0086
B( 54-C , 55-C ) :   1.6524 B( 55-C , 56-C ) :   1.1341 B( 55-C , 58-C ) :   1.1547
B( 56-C , 57-N ) :   2.9979 B( 58-C , 59-N ) :   3.0149

-----------------------------------------------------------------------------
         ABSORPTION SPECTRUM VIA TRANSITION ELECTRIC DIPOLE MOMENTS
-----------------------------------------------------------------------------
State   Energy  Wavelength   fosc         T2         TX        TY        TZ
        (cm-1)    (nm)                  (au**2)     (au)      (au)      (au)
-----------------------------------------------------------------------------
   0   12741.9    784.8   1.214608159  31.38169   4.23028  -3.61787   0.63041
   1   17652.2    566.5   0.284522356   5.30633   1.44035   0.15825  -1.79072
   2   21358.8    468.2   0.646280721   9.96137  -0.16049  -1.72197   2.64016
   3   21393.7    467.4   0.017803287   0.27396  -0.44593   0.21340   0.17194
   4   23009.4    434.6   0.043610348   0.62397   0.26624   0.12870  -0.73247
   5   25492.9    392.3   0.173599580   2.24184   1.10439  -0.97375   0.27200
   6   25516.7    391.9   0.077691045   1.00236  -0.66988   0.70477  -0.23857
   7   26301.2    380.2   0.120876863   1.51302  -0.76613   0.57880  -0.76881
   8   26964.6    370.9   0.040723795   0.49720   0.65597  -0.14654  -0.21313
   9   27100.0    369.0   0.116813230   1.41905  -1.04880   0.56057   0.06947
  10   27751.0    360.3   0.000676429   0.00802   0.01308  -0.03698   0.08053
  11   27791.7    359.8   0.212270820   2.51450  -1.36249   0.80876   0.06343
  12   28849.3    346.6   0.005892940   0.06725  -0.11701   0.12420  -0.19527
  13   28918.9    345.8   0.025341386   0.28849   0.11492  -0.27967   0.44392
  14   29082.8    343.8   0.093638442   1.05997  -0.10400  -0.39741   0.94404
  15   29489.5    339.1   0.047509932   0.53039   0.52265  -0.21901   0.45745
  16   30463.9    328.3   0.002936013   0.03173  -0.16485   0.06747   0.00013
  17   30737.2    325.3   0.137724452   1.47511  -0.91462   0.52829  -0.59958
  18   31354.6    318.9   0.157132883   1.64984  -0.77235  -0.31577   0.97652
  19   31682.6    315.6   0.010128941   0.10525  -0.24482   0.10385   0.18582
  20   32333.8    309.3   0.114692054   1.16776  -0.63140   0.66648  -0.56999
  21   32477.8    307.9   0.010017660   0.10154   0.19683  -0.07158  -0.24016
  22   32913.8    303.8   0.055106365   0.55119  -0.32802   0.31644  -0.58605
  23   33195.3    301.2   0.016457598   0.16322   0.12261  -0.14339   0.35724
  24   33539.7    298.2   0.015089256   0.14811  -0.22505   0.28354  -0.13064
  25   33689.9    296.8   0.017320808   0.16926   0.28886  -0.06425  -0.28581
  26   34328.0    291.3   0.065186552   0.62515   0.00540   0.06248  -0.78817
  27   34687.9    288.3   0.003532748   0.03353  -0.10349  -0.06295  -0.13731
  28   34830.4    287.1   0.145546588   1.37569   1.10772  -0.37931   0.06910
  29   35036.4    285.4   0.065243679   0.61305   0.05681  -0.14812  -0.76673
  30   35402.8    282.5   0.006723791   0.06252  -0.10097   0.01034   0.22852
  31   35488.9    281.8   0.099453842   0.92258  -0.30685   0.06344   0.90797
  32   36529.5    273.8   0.048117803   0.43365   0.17388   0.39014  -0.50120
  33   36852.1    271.4   0.065370133   0.58397   0.29395   0.37605  -0.59679
  34   37300.9    268.1   0.219330023   1.93577  -0.75472  -0.52484   1.04437
  35   37719.0    265.1   0.360667605   3.14791  -0.81458   0.70940  -1.40752
  36   37822.2    264.4   0.050826036   0.44240   0.37843  -0.32670   0.43870
  37   38404.2    260.4   0.107270791   0.91956   0.24558  -0.27876   0.88405
  38   38537.8    259.5   0.100427652   0.85791   0.33244   0.65192  -0.56780
  39   38635.2    258.8   0.003894786   0.03319  -0.13102  -0.11762  -0.04675
  40   38853.6    257.4   0.046528124   0.39424  -0.00100   0.45780  -0.42971
  41   39105.7    255.7   0.036036852   0.30338   0.41902  -0.16564   0.31680
  42   39453.8    253.5   0.025887030   0.21601  -0.43248   0.09300   0.14254
  43   39844.1    251.0   0.275117213   2.27316   0.34590  -0.99429   1.07931
  44   40252.7    248.4   0.163771140   1.33942  -0.93187   0.44370  -0.52362

FINAL SINGLE POINT ENERGY     -4542.508796842339

DIPOLE MOMENT
-------------
                                X             Y             Z
Electronic contribution:    -25.96963      -8.42735      48.05517
Nuclear contribution   :     27.11848       8.02286     -47.03846
                        -----------------------------------------
Total Dipole Moment    :      1.14885      -0.40450       1.01671
                        -----------------------------------------
Magnitude (a.u.)       :      1.58656
Magnitude (Debye)      :      4.03271

Rotational constants in cm-1:     0.001656     0.000268     0.000234
Rotational constants in MHz :    49.632671     8.047126     7.004565

                             ****ORCA TERMINATED NORMALLY****
TOTAL RUN TIME: 0 days 0 hours 6 minutes 30 seconds 911 msec
