                         Program Version 4.2.0 -  RELEASE  -
|  1> # ORCA input file
|  2> # SCF done       -159.967352987209          0.000498747054
|  3> ! CAM-B3LYP def2-SVP def2/J RIJCOSX Grid4 TightSCF
|  4> %maxcore 5000
|  5> %tddft
|  6>     Mode sTDDFT
|  7>     Ethresh 5.0
|  8>     maxcore 5000
|  9> end
| 10>
| 11> %pal
| 12>   nprocs 6
| 13>   end
| 14> * xyz 0 1
| 15>    C       12.58374         3.37172        -3.17651
| 16>    C       13.33676         4.31509        -3.80245
| 17>    S       14.85973         4.51947        -3.01655
| 18>    C       14.48228         3.29927        -1.82271
| 19>   Cl       15.58367         2.88521        -0.60552
| 20>    C       13.23777         2.78785        -2.04128
| 21>    C       12.36183         1.78445        -1.42604
| 22>    O       12.57814         1.05264        -0.49366
| 23>    C       11.07185         1.90260        -2.18925
| 24>    C       11.29115         2.73971        -3.35405
| 25>    C       10.55152         2.79339        -4.50475
| 26>    C       10.90773         3.64575        -5.57004
| 27>    N       11.16764         4.35534        -6.43328
| 28>    C        9.41429         2.00707        -4.76515
| 29>    N        8.48720         1.38271        -5.02767
| 30>    C        9.95823         1.33317        -1.66652
| 31>    C        8.58207         1.56912        -1.96993
| 32>    C        7.62691         0.55812        -1.72501
| 33>    C        6.23372         0.72007        -2.02038
| 34>    N        5.38930        -0.31893        -1.84492
| 35>    C        5.85125        -1.43162        -1.38927
| 36>    C        7.23055        -1.58056        -1.04856
| 37>    N        8.07201        -0.61939        -1.22456
| 38>    F        7.68254        -2.71677        -0.53503
| 39>    F        5.01156        -2.44581        -1.23697
| 40>    C        5.72620         1.94124        -2.51481
| 41>    C        6.66410         2.97149        -2.70771
| 42>    C        8.07123         2.79308        -2.44289
| 43>    N        8.75839         3.91632        -2.67594
| 44>    S        7.75223         5.05257        -3.18782
| 45>    N        6.39744         4.20858        -3.13515
| 46>    C        4.34411         2.14231        -2.80740
| 47>    S        3.76616         3.58930        -3.62934
| 48>    C        2.17324         2.87676        -3.47334
| 49>    N        2.19755         1.71857        -2.86317
| 50>    N        3.37660         1.32359        -2.50603
| 51>    C        0.99480         3.51542        -3.95978
| 52>    C       -0.22907         2.97763        -3.79090
| 53>    C       -1.46123         3.56711        -4.24051
| 54>    C       -2.69654         3.11421        -3.74929
| 55>    N       -3.84201         3.65820        -4.08717
| 56>    C       -3.80955         4.66896        -4.96050
| 57>    N       -2.70517         5.12279        -5.55163
| 58>    C       -1.55841         4.59628        -5.19113
| 59>    C       -5.06214         5.27057        -5.36757
| 60>    C       -6.21296         5.32171        -4.66990
| 61>    C       -7.50105         5.62980        -5.38651
| 62>    O       -7.61181         6.10878        -6.48594
| 63>    C       -8.54091         5.16014        -4.46598
| 64>    C       -9.89779         5.02019        -4.47816
| 65>    S      -10.45799         4.36192        -2.95987
| 66>    C       -8.85642         4.29473        -2.32133
| 67>    C       -7.94716         4.74373        -3.22746
| 68>    C       -6.51718         4.97280        -3.28652
| 69>    C       -5.69237         5.05480        -2.20260
| 70>    C       -6.15435         4.74818        -0.90432
| 71>    N       -6.51729         4.49036         0.15257
| 72>    C       -4.36178         5.52087        -2.23417
| 73>    N       -3.29781         5.94702        -2.18069
| 74>   Cl      -10.97477         5.39747        -5.72865
| 75>    H       13.10305         4.91147        -4.66191
| 76>    H       10.13112         0.61474        -0.87109
| 77>    H        1.13661         4.46348        -4.45660
| 78>    H       -0.30569         2.04257        -3.25206
| 79>    H       -2.74975         2.29251        -3.04567
| 80>    H       -0.68554         4.98783        -5.69662
| 81>    H       -5.07539         5.67063        -6.37477
| 82>    H       -8.69866         3.92010        -1.32942
| 83> *
| 84>
| 85>                          ****END OF INPUT****

CARTESIAN COORDINATES (ANGSTROEM)
---------------------------------
  C     12.583740    3.371720   -3.176510
  C     13.336760    4.315090   -3.802450
  S     14.859730    4.519470   -3.016550
  C     14.482280    3.299270   -1.822710
  Cl    15.583670    2.885210   -0.605520
  C     13.237770    2.787850   -2.041280
  C     12.361830    1.784450   -1.426040
  O     12.578140    1.052640   -0.493660
  C     11.071850    1.902600   -2.189250
  C     11.291150    2.739710   -3.354050
  C     10.551520    2.793390   -4.504750
  C     10.907730    3.645750   -5.570040
  N     11.167640    4.355340   -6.433280
  C      9.414290    2.007070   -4.765150
  N      8.487200    1.382710   -5.027670
  C      9.958230    1.333170   -1.666520
  C      8.582070    1.569120   -1.969930
  C      7.626910    0.558120   -1.725010
  C      6.233720    0.720070   -2.020380
  N      5.389300   -0.318930   -1.844920
  C      5.851250   -1.431620   -1.389270
  C      7.230550   -1.580560   -1.048560
  N      8.072010   -0.619390   -1.224560
  F      7.682540   -2.716770   -0.535030
  F      5.011560   -2.445810   -1.236970
  C      5.726200    1.941240   -2.514810
  C      6.664100    2.971490   -2.707710
  C      8.071230    2.793080   -2.442890
  N      8.758390    3.916320   -2.675940
  S      7.752230    5.052570   -3.187820
  N      6.397440    4.208580   -3.135150
  C      4.344110    2.142310   -2.807400
  S      3.766160    3.589300   -3.629340
  C      2.173240    2.876760   -3.473340
  N      2.197550    1.718570   -2.863170
  N      3.376600    1.323590   -2.506030
  C      0.994800    3.515420   -3.959780
  C     -0.229070    2.977630   -3.790900
  C     -1.461230    3.567110   -4.240510
  C     -2.696540    3.114210   -3.749290
  N     -3.842010    3.658200   -4.087170
  C     -3.809550    4.668960   -4.960500
  N     -2.705170    5.122790   -5.551630
  C     -1.558410    4.596280   -5.191130
  C     -5.062140    5.270570   -5.367570
  C     -6.212960    5.321710   -4.669900
  C     -7.501050    5.629800   -5.386510
  O     -7.611810    6.108780   -6.485940
  C     -8.540910    5.160140   -4.465980
  C     -9.897790    5.020190   -4.478160
  S    -10.457990    4.361920   -2.959870
  C     -8.856420    4.294730   -2.321330
  C     -7.947160    4.743730   -3.227460
  C     -6.517180    4.972800   -3.286520
  C     -5.692370    5.054800   -2.202600
  C     -6.154350    4.748180   -0.904320
  N     -6.517290    4.490360    0.152570
  C     -4.361780    5.520870   -2.234170
  N     -3.297810    5.947020   -2.180690
  Cl   -10.974770    5.397470   -5.728650
  H     13.103050    4.911470   -4.661910
  H     10.131120    0.614740   -0.871090
  H      1.136610    4.463480   -4.456600
  H     -0.305690    2.042570   -3.252060
  H     -2.749750    2.292510   -3.045670
  H     -0.685540    4.987830   -5.696620
  H     -5.075390    5.670630   -6.374770
  H     -8.698660    3.920100   -1.329420

 Total Charge           Charge          ....    0
 Multiplicity           Mult            ....    1
 Number of Electrons    NEL             ....  452
 Basis Dimension        Dim             ....  904

ORBITAL ENERGIES
----------------

  NO   OCC          E(Eh)            E(eV)
   0   2.0000    -101.618885     -2765.1904
   1   2.0000    -101.618587     -2765.1823
   2   2.0000     -89.057520     -2423.3783
   3   2.0000     -88.995138     -2421.6808
   4   2.0000     -88.994512     -2421.6638
   5   2.0000     -88.978195     -2421.2198
   6   2.0000     -24.821225      -675.4199
   7   2.0000     -24.815151      -675.2546
   8   2.0000     -19.223052      -523.0859
   9   2.0000     -19.221448      -523.0422
  10   2.0000     -14.466587      -393.6558
  11   2.0000     -14.461491      -393.5172
  12   2.0000     -14.459688      -393.4681
  13   2.0000     -14.451743      -393.2519
  14   2.0000     -14.442741      -393.0070
  15   2.0000     -14.439283      -392.9129
  16   2.0000     -14.429046      -392.6343
  17   2.0000     -14.427481      -392.5917
  18   2.0000     -14.425590      -392.5403
  19   2.0000     -14.423880      -392.4937
  20   2.0000     -14.422603      -392.4590
  21   2.0000     -14.420254      -392.3951
  22   2.0000     -10.439104      -284.0625
  23   2.0000     -10.433279      -283.9040
  24   2.0000     -10.379150      -282.4310
  25   2.0000     -10.378058      -282.4013
  26   2.0000     -10.377519      -282.3866
  27   2.0000     -10.377283      -282.3802
  28   2.0000     -10.360774      -281.9310
  29   2.0000     -10.358933      -281.8809
  30   2.0000     -10.356727      -281.8209
  31   2.0000     -10.352733      -281.7122
  32   2.0000     -10.351529      -281.6794
  33   2.0000     -10.350764      -281.6586
  34   2.0000     -10.350233      -281.6442
  35   2.0000     -10.349640      -281.6280
  36   2.0000     -10.348990      -281.6103
  37   2.0000     -10.348958      -281.6095
  38   2.0000     -10.345163      -281.5062
  39   2.0000     -10.336938      -281.2824
  40   2.0000     -10.335848      -281.2527
  41   2.0000     -10.335375      -281.2399
  42   2.0000     -10.330314      -281.1021
  43   2.0000     -10.330276      -281.1011
  44   2.0000     -10.327662      -281.0300
  45   2.0000     -10.326068      -280.9866
  46   2.0000     -10.323962      -280.9293
  47   2.0000     -10.323331      -280.9121
  48   2.0000     -10.323034      -280.9040
  49   2.0000     -10.321257      -280.8557
  50   2.0000     -10.315504      -280.6991
  51   2.0000     -10.314873      -280.6820
  52   2.0000     -10.314379      -280.6685
  53   2.0000     -10.311509      -280.5904
  54   2.0000     -10.310004      -280.5495
  55   2.0000     -10.309072      -280.5241
  56   2.0000     -10.305019      -280.4138
  57   2.0000     -10.304249      -280.3929
  58   2.0000     -10.302485      -280.3449
  59   2.0000     -10.301629      -280.3216
  60   2.0000      -9.573642      -260.5120
  61   2.0000      -9.573353      -260.5042
  62   2.0000      -8.148461      -221.7309
  63   2.0000      -8.090886      -220.1642
  64   2.0000      -8.090250      -220.1469
  65   2.0000      -8.073481      -219.6906
  66   2.0000      -7.344293      -199.8484
  67   2.0000      -7.344001      -199.8404
  68   2.0000      -7.333674      -199.5594
  69   2.0000      -7.333387      -199.5516
  70   2.0000      -7.333133      -199.5447
  71   2.0000      -7.332845      -199.5368
  72   2.0000      -6.119423      -166.5180
  73   2.0000      -6.111716      -166.3083
  74   2.0000      -6.111429      -166.3004
  75   2.0000      -6.060245      -164.9076
  76   2.0000      -6.059627      -164.8908
  77   2.0000      -6.055643      -164.7824
  78   2.0000      -6.055040      -164.7660
  79   2.0000      -6.053167      -164.7150
  80   2.0000      -6.052484      -164.6965
  81   2.0000      -6.042251      -164.4180
  82   2.0000      -6.038600      -164.3187
  83   2.0000      -6.035952      -164.2466
  84   2.0000      -1.348571       -36.6965
  85   2.0000      -1.333198       -36.2782
  86   2.0000      -1.154496       -31.4154
  87   2.0000      -1.148651       -31.2564
  88   2.0000      -1.140585       -31.0369
  89   2.0000      -1.139070       -30.9957
  90   2.0000      -1.118668       -30.4405
  91   2.0000      -1.101575       -29.9754
  92   2.0000      -1.043763       -28.4022
  93   2.0000      -1.039737       -28.2927
  94   2.0000      -1.039574       -28.2882
  95   2.0000      -1.022671       -27.8283
  96   2.0000      -1.018743       -27.7214
  97   2.0000      -1.008630       -27.4462
  98   2.0000      -1.003648       -27.3106
  99   2.0000      -1.001038       -27.2396
 100   2.0000      -0.994166       -27.0526
 101   2.0000      -0.991996       -26.9936
 102   2.0000      -0.989704       -26.9312
 103   2.0000      -0.986157       -26.8347
 104   2.0000      -0.957964       -26.0675
 105   2.0000      -0.955365       -25.9968
 106   2.0000      -0.952213       -25.9110
 107   2.0000      -0.932902       -25.3855
 108   2.0000      -0.923864       -25.1396
 109   2.0000      -0.909987       -24.7620
 110   2.0000      -0.908598       -24.7242
 111   2.0000      -0.896108       -24.3843
 112   2.0000      -0.893405       -24.3108
 113   2.0000      -0.885354       -24.0917
 114   2.0000      -0.857619       -23.3370
 115   2.0000      -0.844032       -22.9673
 116   2.0000      -0.834219       -22.7003
 117   2.0000      -0.834082       -22.6965
 118   2.0000      -0.819508       -22.2999
 119   2.0000      -0.803615       -21.8675
 120   2.0000      -0.794154       -21.6100
 121   2.0000      -0.778155       -21.1747
 122   2.0000      -0.767425       -20.8827
 123   2.0000      -0.764052       -20.7909
 124   2.0000      -0.761432       -20.7196
 125   2.0000      -0.752077       -20.4651
 126   2.0000      -0.747176       -20.3317
 127   2.0000      -0.733599       -19.9622
 128   2.0000      -0.715488       -19.4694
 129   2.0000      -0.705642       -19.2015
 130   2.0000      -0.697282       -18.9740
 131   2.0000      -0.693780       -18.8787
 132   2.0000      -0.685580       -18.6556
 133   2.0000      -0.680854       -18.5270
 134   2.0000      -0.677642       -18.4396
 135   2.0000      -0.677518       -18.4362
 136   2.0000      -0.670596       -18.2478
 137   2.0000      -0.666817       -18.1450
 138   2.0000      -0.655432       -17.8352
 139   2.0000      -0.641992       -17.4695
 140   2.0000      -0.635818       -17.3015
 141   2.0000      -0.624686       -16.9986
 142   2.0000      -0.623035       -16.9536
 143   2.0000      -0.622266       -16.9327
 144   2.0000      -0.615985       -16.7618
 145   2.0000      -0.613032       -16.6814
 146   2.0000      -0.609271       -16.5791
 147   2.0000      -0.606805       -16.5120
 148   2.0000      -0.598317       -16.2810
 149   2.0000      -0.583753       -15.8847
 150   2.0000      -0.581326       -15.8187
 151   2.0000      -0.574105       -15.6222
 152   2.0000      -0.573808       -15.6141
 153   2.0000      -0.571203       -15.5432
 154   2.0000      -0.562866       -15.3164
 155   2.0000      -0.557789       -15.1782
 156   2.0000      -0.550190       -14.9714
 157   2.0000      -0.549742       -14.9593
 158   2.0000      -0.546662       -14.8754
 159   2.0000      -0.543041       -14.7769
 160   2.0000      -0.540899       -14.7186
 161   2.0000      -0.534279       -14.5385
 162   2.0000      -0.533102       -14.5065
 163   2.0000      -0.527903       -14.3650
 164   2.0000      -0.526556       -14.3283
 165   2.0000      -0.525968       -14.3123
 166   2.0000      -0.524395       -14.2695
 167   2.0000      -0.521715       -14.1966
 168   2.0000      -0.517823       -14.0907
 169   2.0000      -0.515485       -14.0271
 170   2.0000      -0.513050       -13.9608
 171   2.0000      -0.508064       -13.8251
 172   2.0000      -0.506128       -13.7724
 173   2.0000      -0.501237       -13.6393
 174   2.0000      -0.500142       -13.6096
 175   2.0000      -0.497587       -13.5400
 176   2.0000      -0.495429       -13.4813
 177   2.0000      -0.489615       -13.3231
 178   2.0000      -0.488872       -13.3029
 179   2.0000      -0.488485       -13.2924
 180   2.0000      -0.483663       -13.1611
 181   2.0000      -0.481188       -13.0938
 182   2.0000      -0.468749       -12.7553
 183   2.0000      -0.459981       -12.5167
 184   2.0000      -0.458901       -12.4873
 185   2.0000      -0.457872       -12.4593
 186   2.0000      -0.455913       -12.4060
 187   2.0000      -0.453185       -12.3318
 188   2.0000      -0.450031       -12.2460
 189   2.0000      -0.448367       -12.2007
 190   2.0000      -0.445451       -12.1213
 191   2.0000      -0.444889       -12.1060
 192   2.0000      -0.440215       -11.9788
 193   2.0000      -0.438449       -11.9308
 194   2.0000      -0.436423       -11.8757
 195   2.0000      -0.434439       -11.8217
 196   2.0000      -0.431949       -11.7539
 197   2.0000      -0.430631       -11.7181
 198   2.0000      -0.426342       -11.6013
 199   2.0000      -0.421556       -11.4711
 200   2.0000      -0.419170       -11.4062
 201   2.0000      -0.417255       -11.3541
 202   2.0000      -0.412829       -11.2337
 203   2.0000      -0.410590       -11.1727
 204   2.0000      -0.404862       -11.0169
 205   2.0000      -0.404850       -11.0165
 206   2.0000      -0.401345       -10.9212
 207   2.0000      -0.398924       -10.8553
 208   2.0000      -0.396707       -10.7950
 209   2.0000      -0.388404       -10.5690
 210   2.0000      -0.385257       -10.4834
 211   2.0000      -0.373000       -10.1498
 212   2.0000      -0.368896       -10.0382
 213   2.0000      -0.364010        -9.9052
 214   2.0000      -0.352765        -9.5992
 215   2.0000      -0.347465        -9.4550
 216   2.0000      -0.346956        -9.4411
 217   2.0000      -0.344804        -9.3826
 218   2.0000      -0.338371        -9.2076
 219   2.0000      -0.333591        -9.0775
 220   2.0000      -0.332957        -9.0602
 221   2.0000      -0.317005        -8.6261
 222   2.0000      -0.316781        -8.6200
 223   2.0000      -0.311173        -8.4674
 224   2.0000      -0.305505        -8.3132
 225   2.0000      -0.277167        -7.5421
 226   0.0000      -0.131809        -3.5867
 227   0.0000      -0.099853        -2.7171
 228   0.0000      -0.077752        -2.1157
 229   0.0000      -0.058461        -1.5908
 230   0.0000      -0.048779        -1.3274

MULLIKEN ATOMIC CHARGES
-----------------------
   0 C :    0.011770
   1 C :   -0.131966
   2 S :    0.183954
   3 C :   -0.171546
   4 Cl:    0.000673
   5 C :    0.098656
   6 C :    0.123610
   7 O :   -0.120865
   8 C :   -0.120659
   9 C :    0.328565
  10 C :   -0.324846
  11 C :   -0.201776
  12 N :    0.156534
  13 C :   -0.192603
  14 N :    0.161582
  15 C :   -0.033426
  16 C :    0.082749
  17 C :   -0.022216
  18 C :   -0.097641
  19 N :    0.082381
  20 C :    0.130280
  21 C :    0.140830
  22 N :    0.016039
  23 F :   -0.129078
  24 F :   -0.129098
  25 C :    0.221658
  26 C :    0.039801
  27 C :   -0.033430
  28 N :   -0.287939
  29 S :    0.569607
  30 N :   -0.303250
  31 C :   -0.264862
  32 S :    0.147859
  33 C :   -0.070094
  34 N :   -0.052461
  35 N :    0.001810
  36 C :    0.059922
  37 C :    0.023475
  38 C :    0.043731
  39 C :    0.043979
  40 N :   -0.068767
  41 C :   -0.087889
  42 N :   -0.035973
  43 C :    0.043946
  44 C :    0.094523
  45 C :   -0.107632
  46 C :    0.131198
  47 O :   -0.118185
  48 C :    0.083330
  49 C :   -0.168823
  50 S :    0.188119
  51 C :   -0.124191
  52 C :    0.017240
  53 C :    0.290028
  54 C :   -0.294892
  55 C :   -0.196294
  56 N :    0.158161
  57 C :   -0.181232
  58 N :    0.163113
  59 Cl:    0.001740
  60 H :    0.051725
  61 H :    0.042129
  62 H :   -0.004105
  63 H :    0.025855
  64 H :    0.014887
  65 H :    0.011690
  66 H :    0.035120
  67 H :    0.053474
Sum of atomic charges:   -0.0000000

LOEWDIN ATOMIC CHARGES
----------------------
   0 C :   -0.054339
   1 C :   -0.153786
   2 S :    0.473541
   3 C :   -0.272156
   4 Cl:    0.193235
   5 C :   -0.117985
   6 C :    0.081849
   7 O :   -0.125000
   8 C :   -0.069568
   9 C :    0.077579
  10 C :   -0.137017
  11 C :   -0.018546
  12 N :   -0.053767
  13 C :   -0.017957
  14 N :   -0.055881
  15 C :    0.074199
  16 C :   -0.040484
  17 C :    0.018086
  18 C :    0.001231
  19 N :   -0.009722
  20 C :    0.059891
  21 C :    0.069243
  22 N :   -0.041889
  23 F :   -0.018652
  24 F :   -0.018975
  25 C :   -0.021580
  26 C :   -0.042781
  27 C :   -0.038659
  28 N :   -0.281535
  29 S :    0.695691
  30 N :   -0.294400
  31 C :   -0.154911
  32 S :    0.436828
  33 C :   -0.148167
  34 N :   -0.079433
  35 N :   -0.037730
  36 C :   -0.043302
  37 C :    0.025221
  38 C :   -0.057572
  39 C :    0.062918
  40 N :   -0.067202
  41 C :    0.015401
  42 N :   -0.061097
  43 C :    0.065395
  44 C :    0.062804
  45 C :   -0.054840
  46 C :    0.082293
  47 O :   -0.122462
  48 C :   -0.119143
  49 C :   -0.272214
  50 S :    0.478194
  51 C :   -0.151959
  52 C :   -0.055101
  53 C :    0.074221
  54 C :   -0.116494
  55 C :   -0.015464
  56 N :   -0.047236
  57 C :   -0.017814
  58 N :   -0.049854
  59 Cl:    0.194050
  60 H :    0.036959
  61 H :    0.052789
  62 H :    0.031946
  63 H :    0.043223
  64 H :    0.030366
  65 H :    0.027170
  66 H :    0.054340
  67 H :    0.038008

  Mayer bond orders larger than 0.100000
B(  0-C ,  1-C ) :   1.5485 B(  0-C ,  5-C ) :   1.2205 B(  0-C ,  9-C ) :   1.0173
B(  1-C ,  2-S ) :   1.1569 B(  1-C , 60-H ) :   0.9568 B(  2-S ,  3-C ) :   1.1511
B(  3-C ,  4-Cl) :   1.1305 B(  3-C ,  5-C ) :   1.4795 B(  5-C ,  6-C ) :   0.9253
B(  6-C ,  7-O ) :   2.2844 B(  6-C ,  8-C ) :   0.9291 B(  8-C ,  9-C ) :   1.0332
B(  8-C , 15-C ) :   1.6750 B(  9-C , 10-C ) :   1.6519 B( 10-C , 11-C ) :   1.1435
B( 10-C , 13-C ) :   1.1679 B( 11-C , 12-N ) :   2.9997 B( 13-C , 14-N ) :   2.9895
B( 15-C , 16-C ) :   1.1003 B( 15-C , 61-H ) :   0.9358 B( 16-C , 17-C ) :   1.3099
B( 16-C , 25-C ) :   0.1401 B( 16-C , 27-C ) :   1.2067 B( 17-C , 18-C ) :   1.1130
B( 17-C , 22-N ) :   1.4458 B( 18-C , 19-N ) :   1.4729 B( 18-C , 25-C ) :   1.2942
B( 19-N , 20-C ) :   1.7046 B( 20-C , 21-C ) :   1.0761 B( 20-C , 24-F ) :   1.1860
B( 21-C , 22-N ) :   1.6987 B( 21-C , 23-F ) :   1.1882 B( 25-C , 26-C ) :   1.2259
B( 25-C , 31-C ) :   1.0873 B( 26-C , 27-C ) :   1.1285 B( 26-C , 30-N ) :   1.4719
B( 27-C , 28-N ) :   1.4947 B( 28-N , 29-S ) :   1.2831 B( 28-N , 30-N ) :   0.1500
B( 29-S , 30-N ) :   1.2947 B( 31-C , 32-S ) :   1.1176 B( 31-C , 35-N ) :   1.6907
B( 32-S , 33-C ) :   1.1013 B( 32-S , 35-N ) :   0.1002 B( 33-C , 34-N ) :   1.6280
B( 33-C , 36-C ) :   1.1061 B( 34-N , 35-N ) :   1.2441 B( 36-C , 37-C ) :   1.7418
B( 36-C , 62-H ) :   0.9467 B( 37-C , 38-C ) :   1.0494 B( 37-C , 63-H ) :   0.9789
B( 38-C , 39-C ) :   1.3016 B( 38-C , 43-C ) :   1.3072 B( 39-C , 40-N ) :   1.5541
B( 39-C , 64-H ) :   0.9902 B( 40-N , 41-C ) :   1.4795 B( 41-C , 42-N ) :   1.5044
B( 41-C , 44-C ) :   0.9982 B( 42-N , 43-C ) :   1.5787 B( 43-C , 65-H ) :   0.9820
B( 44-C , 45-C ) :   1.7473 B( 44-C , 66-H ) :   0.9469 B( 45-C , 46-C ) :   0.9200
B( 45-C , 53-C ) :   1.0043 B( 46-C , 47-O ) :   2.2948 B( 46-C , 48-C ) :   0.9250
B( 48-C , 49-C ) :   1.4795 B( 48-C , 52-C ) :   1.2190 B( 49-C , 50-S ) :   1.1574
B( 49-C , 59-Cl) :   1.1305 B( 50-S , 51-C ) :   1.1593 B( 51-C , 52-C ) :   1.5517
B( 51-C , 67-H ) :   0.9555 B( 52-C , 53-C ) :   1.0138 B( 53-C , 54-C ) :   1.7077
B( 54-C , 55-C ) :   1.1363 B( 54-C , 57-C ) :   1.1497 B( 55-C , 56-N ) :   3.0019
B( 57-C , 58-N ) :   2.9882

-----------------------------------------------------------------------------
         ABSORPTION SPECTRUM VIA TRANSITION ELECTRIC DIPOLE MOMENTS
-----------------------------------------------------------------------------
State   Energy  Wavelength   fosc         T2         TX        TY        TZ
        (cm-1)    (nm)                  (au**2)     (au)      (au)      (au)
-----------------------------------------------------------------------------
   0   15684.7    637.6   0.849570209  17.83190   4.20941  -0.30246   0.14599
   1   19033.5    525.4   0.008684474   0.15021  -0.37902   0.08095  -0.00161
   2   21601.5    462.9   0.133896189   2.04061  -1.30477   0.32000  -0.48559
   3   24355.9    410.6   0.180233345   2.43617  -1.21590   0.96532  -0.16094
   4   25015.3    399.8   0.252079948   3.31748  -1.74491   0.11407   0.50967
   5   25988.4    384.8   0.051824979   0.65650  -0.74222   0.15439  -0.28595
   6   26245.4    381.0   0.022308862   0.27983  -0.49200  -0.04946   0.18794
   7   26533.7    376.9   0.055089210   0.68351  -0.48138  -0.12092   0.66118
   8   27942.6    357.9   0.015642105   0.18429  -0.18149   0.25207  -0.29633
   9   28113.1    355.7   0.063291249   0.74116  -0.71089   0.02755  -0.48480
  10   29053.3    344.2   0.184117462   2.08629  -0.63781  -1.27663   0.22295
  11   29150.5    343.0   0.140190516   1.58324   0.30450   1.15295  -0.40154
  12   29352.0    340.7   0.079013791   0.88622  -0.44165  -0.79473   0.24407
  13   30424.3    328.7   0.004193466   0.04538   0.02041   0.19583   0.08130
  14   31105.9    321.5   0.080028896   0.84699   0.81253  -0.24092   0.35881
  15   31397.7    318.5   0.152845954   1.60262  -0.90212   0.31316  -0.83111
  16   31724.0    315.2   0.082048100   0.85144  -0.45801   0.53090  -0.59984
  17   32458.7    308.1   0.031898630   0.32353   0.16685   0.40764   0.35989
  18   32758.1    305.3   0.075844956   0.76223  -0.84781   0.16429  -0.12825
  19   33283.1    300.5   0.042392543   0.41932   0.29518   0.06707  -0.57244
  20   33810.5    295.8   0.278548757   2.71222  -1.60364  -0.12523  -0.35336
  21   34191.5    292.5   0.136800480   1.31718  -1.01461  -0.09265  -0.52835
  22   34446.7    290.3   0.028729949   0.27458  -0.50169   0.04661  -0.14392
  23   34530.6    289.6   0.458943457   4.37554  -2.03470   0.33684  -0.34941
  24   34726.9    288.0   0.043467618   0.41207   0.30018  -0.46126  -0.33047
  25   35193.6    284.1   0.033481460   0.31320   0.06309   0.48115   0.27876
  26   36148.1    276.6   0.158531324   1.44379   1.13946   0.11666   0.36308
  27   36486.0    274.1   0.053721030   0.48472   0.62391   0.30704  -0.03438
  28   36586.2    273.3   0.108233865   0.97392   0.74322  -0.11588   0.63884
  29   36797.2    271.8   0.005643106   0.05049  -0.00574   0.04654  -0.21975
  30   36959.4    270.6   0.043665101   0.38894  -0.60509  -0.13861  -0.05994
  31   37195.3    268.9   0.043320595   0.38343   0.48558   0.13434   0.35999
  32   37519.8    266.5   0.058508776   0.51338   0.61236   0.09179   0.36051
  33   37764.7    264.8   0.017916193   0.15618   0.22907   0.14437  -0.28787
  34   37917.2    263.7   0.056043965   0.48660   0.62026  -0.03644   0.31710
  35   38198.2    261.8   0.047674161   0.41088   0.52943   0.09343   0.34908
  36   38332.1    260.9   0.104630828   0.89861  -0.93167   0.05809  -0.16504
  37   38600.5    259.1   0.118113402   1.00735   0.85526   0.29984   0.43126
  38   38790.0    257.8   0.071930404   0.61048  -0.75387  -0.11826  -0.16785
  39   39154.2    255.4   0.414863398   3.48820   1.42074   0.28026   1.17947
  40   39499.4    253.2   0.016066751   0.13391   0.08709   0.07051   0.34836
  41   39795.1    251.3   0.011638125   0.09628   0.29439   0.09801  -0.00323
  42   39854.3    250.9   0.113262035   0.93559  -0.80516  -0.08408  -0.52937
  43   39896.4    250.6   0.014245221   0.11755  -0.25907  -0.11671  -0.19185
  44   40161.4    249.0   0.049566769   0.40631   0.56906   0.21923  -0.18552

FINAL SINGLE POINT ENERGY     -4969.204554672589

DIPOLE MOMENT
-------------
                                X             Y             Z
Electronic contribution:     21.18928     -10.49763       8.56796
Nuclear contribution   :    -20.85646      11.27814      -8.54291
                        -----------------------------------------
Total Dipole Moment    :      0.33282       0.78051       0.02505
                        -----------------------------------------
Magnitude (a.u.)       :      0.84888
Magnitude (Debye)      :      2.15768

Rotational constants in cm-1:     0.003351     0.000268     0.000258
Rotational constants in MHz :   100.463588     8.036747     7.721585

                             ****ORCA TERMINATED NORMALLY****
TOTAL RUN TIME: 0 days 0 hours 7 minutes 49 seconds 716 msec
