                         Program Version 4.2.0 -  RELEASE  -
|  1> # ORCA input file
|  2> # SCF done       -196.212380562422          0.000776892256
|  3> ! CAM-B3LYP def2-SVP def2/J RIJCOSX Grid4 TightSCF
|  4> %maxcore 5000
|  5> %tddft
|  6>     Mode sTDDFT
|  7>     Ethresh 5.0
|  8>     maxcore 5000
|  9> end
| 10>
| 11> %pal
| 12>   nprocs 6
| 13>   end
| 14> * xyz 0 1
| 15>    C        1.63171         1.60772        -1.62103
| 16>    C        1.24297         2.77509        -2.20352
| 17>    S        1.53048         2.74938        -3.90377
| 18>    C        2.19036         1.13279        -3.83613
| 19>   Cl        2.74740         0.34497        -5.22698
| 20>    C        2.17609         0.66649        -2.55395
| 21>    C        2.57904        -0.55968        -1.86189
| 22>    O        3.06192        -1.55770        -2.34039
| 23>    C        2.19061        -0.32672        -0.42768
| 24>    C        1.66224         1.03057        -0.29484
| 25>    C        1.31818         1.68355         0.85527
| 26>    C        0.84209         3.01299         0.82935
| 27>    N        0.45171         4.09111         0.82085
| 28>    C        1.41705         1.15221         2.15793
| 29>    N        1.49038         0.77744         3.24000
| 30>    C        2.15520        -1.28248         0.52694
| 31>    C        2.71930        -2.61356         0.42415
| 32>    C        2.00296        -3.69843         0.92228
| 33>    C        2.49948        -4.98731         0.81154
| 34>    N        1.63478        -6.05294         1.24855
| 35>    O        0.75932        -5.77350         2.03778
| 36>    O        1.82254        -7.16480         0.79628
| 37>    C        3.76670        -5.24415         0.25107
| 38>    C        4.49147        -4.13075        -0.19722
| 39>    C        3.98388        -2.85426        -0.12783
| 40>    C        4.34628        -6.56857         0.20283
| 41>    C        5.21856        -6.94303        -0.75733
| 42>    C        5.90798        -8.17685        -0.93229
| 43>    N        5.87209        -9.34018        -0.21330
| 44>    C        5.04625        -9.69727         0.91714
| 45>    C        3.61385       -10.02672         0.50682
| 46>    C        6.76375       -10.31173        -0.74740
| 47>    O        6.90915       -11.41060        -0.26876
| 48>    C        7.37605        -9.65185        -1.88337
| 49>    C        6.83553        -8.35486        -1.96224
| 50>    C        7.46237        -7.67315        -3.07302
| 51>    O        7.31151        -6.56372        -3.53616
| 52>    N        8.37372        -8.61955        -3.58910
| 53>    C        9.11768        -8.30326        -4.78589
| 54>    C       10.42352        -7.57498        -4.47288
| 55>    C        8.34011        -9.80312        -2.88428
| 56>    C        9.10954       -10.97419        -3.07454
| 57>    C       10.28582       -11.10951        -3.74890
| 58>    C       10.94942       -12.35490        -3.85146
| 59>    N       10.45691       -13.47552        -3.32549
| 60>    C       11.36768       -14.43174        -3.55525
| 61>    C       12.54512       -13.88111        -4.24379
| 62>    C       13.54022       -14.92550        -4.53172
| 63>    O       14.60808       -14.79976        -5.09231
| 64>    C       12.89658       -16.12637        -3.97646
| 65>    C       11.57874       -15.78294        -3.38683
| 66>    N       10.97420       -16.88827        -2.89801
| 67>    C       11.80355       -17.87479        -3.14837
| 68>    C       13.01730       -17.47106        -3.82670
| 69>    C       12.27777       -12.56176        -4.47434
| 70>    C       13.14534       -11.68968        -5.20159
| 71>    C       12.80665       -10.65454        -5.99569
| 72>    C       13.77165        -9.90196        -6.73339
| 73>    C       14.97224       -10.29530        -7.22616
| 74>    C       15.95486        -9.22831        -7.61144
| 75>    O       15.71666        -8.05015        -7.72885
| 76>    C       17.23091        -9.93501        -7.74433
| 77>    C       18.53788        -9.61410        -7.96304
| 78>    S       19.52800       -11.05342        -7.97303
| 79>    C       18.16317       -12.07298        -7.69290
| 80>    C       17.01965       -11.34525        -7.59254
| 81>    C       15.60197       -11.59943        -7.40563
| 82>    C       15.01580       -12.81829        -7.60696
| 83>    C       15.78542       -13.96393        -7.90807
| 84>    N       16.40077       -14.89134        -8.18257
| 85>    C       13.62889       -13.05779        -7.63104
| 86>    N       12.50777       -13.29342        -7.69948
| 87>   Cl       19.21112        -8.07778        -8.20117
| 88>    H        0.80435         3.64496        -1.75614
| 89>    H        1.62965        -1.07731         1.45198
| 90>    H        1.02533        -3.55855         1.36089
| 91>    H        5.48462        -4.28084        -0.58931
| 92>    H        4.58204        -2.02645        -0.47159
| 93>    H        4.03443        -7.26172         0.96676
| 94>    H        5.45372        -6.24223        -1.54950
| 95>    H        5.07867        -8.90075         1.66436
| 96>    H        5.51195       -10.59073         1.34505
| 97>    H        3.10680        -9.16822         0.07507
| 98>    H        3.05416       -10.34971         1.37986
| 99>    H        3.61649       -10.83532        -0.21985
|100>    H        8.48162        -7.63658        -5.37713
|101>    H        9.28513        -9.22099        -5.35317
|102>    H       10.20140        -6.62206        -3.99965
|103>    H       10.96985        -7.38394        -5.39260
|104>    H       11.05405        -8.15136        -3.79878
|105>    H        8.72750       -11.85396        -2.57106
|106>    H       10.79021       -10.26210        -4.18183
|107>    H       11.55531       -18.87939        -2.85265
|108>    H       13.81320       -18.12401        -4.12535
|109>    H       14.19088       -11.96776        -5.13540
|110>    H       11.77935       -10.33030        -6.08111
|111>    H       13.54831        -8.84895        -6.88285
|112>    H       18.30376       -13.13235        -7.61103
|113> *
|114>
|115>                          ****END OF INPUT****

CARTESIAN COORDINATES (ANGSTROEM)
---------------------------------
  C      1.631710    1.607720   -1.621030
  C      1.242970    2.775090   -2.203520
  S      1.530480    2.749380   -3.903770
  C      2.190360    1.132790   -3.836130
  Cl     2.747400    0.344970   -5.226980
  C      2.176090    0.666490   -2.553950
  C      2.579040   -0.559680   -1.861890
  O      3.061920   -1.557700   -2.340390
  C      2.190610   -0.326720   -0.427680
  C      1.662240    1.030570   -0.294840
  C      1.318180    1.683550    0.855270
  C      0.842090    3.012990    0.829350
  N      0.451710    4.091110    0.820850
  C      1.417050    1.152210    2.157930
  N      1.490380    0.777440    3.240000
  C      2.155200   -1.282480    0.526940
  C      2.719300   -2.613560    0.424150
  C      2.002960   -3.698430    0.922280
  C      2.499480   -4.987310    0.811540
  N      1.634780   -6.052940    1.248550
  O      0.759320   -5.773500    2.037780
  O      1.822540   -7.164800    0.796280
  C      3.766700   -5.244150    0.251070
  C      4.491470   -4.130750   -0.197220
  C      3.983880   -2.854260   -0.127830
  C      4.346280   -6.568570    0.202830
  C      5.218560   -6.943030   -0.757330
  C      5.907980   -8.176850   -0.932290
  N      5.872090   -9.340180   -0.213300
  C      5.046250   -9.697270    0.917140
  C      3.613850  -10.026720    0.506820
  C      6.763750  -10.311730   -0.747400
  O      6.909150  -11.410600   -0.268760
  C      7.376050   -9.651850   -1.883370
  C      6.835530   -8.354860   -1.962240
  C      7.462370   -7.673150   -3.073020
  O      7.311510   -6.563720   -3.536160
  N      8.373720   -8.619550   -3.589100
  C      9.117680   -8.303260   -4.785890
  C     10.423520   -7.574980   -4.472880
  C      8.340110   -9.803120   -2.884280
  C      9.109540  -10.974190   -3.074540
  C     10.285820  -11.109510   -3.748900
  C     10.949420  -12.354900   -3.851460
  N     10.456910  -13.475520   -3.325490
  C     11.367680  -14.431740   -3.555250
  C     12.545120  -13.881110   -4.243790
  C     13.540220  -14.925500   -4.531720
  O     14.608080  -14.799760   -5.092310
  C     12.896580  -16.126370   -3.976460
  C     11.578740  -15.782940   -3.386830
  N     10.974200  -16.888270   -2.898010
  C     11.803550  -17.874790   -3.148370
  C     13.017300  -17.471060   -3.826700
  C     12.277770  -12.561760   -4.474340
  C     13.145340  -11.689680   -5.201590
  C     12.806650  -10.654540   -5.995690
  C     13.771650   -9.901960   -6.733390
  C     14.972240  -10.295300   -7.226160
  C     15.954860   -9.228310   -7.611440
  O     15.716660   -8.050150   -7.728850
  C     17.230910   -9.935010   -7.744330
  C     18.537880   -9.614100   -7.963040
  S     19.528000  -11.053420   -7.973030
  C     18.163170  -12.072980   -7.692900
  C     17.019650  -11.345250   -7.592540
  C     15.601970  -11.599430   -7.405630
  C     15.015800  -12.818290   -7.606960
  C     15.785420  -13.963930   -7.908070
  N     16.400770  -14.891340   -8.182570
  C     13.628890  -13.057790   -7.631040
  N     12.507770  -13.293420   -7.699480
  Cl    19.211120   -8.077780   -8.201170
  H      0.804350    3.644960   -1.756140
  H      1.629650   -1.077310    1.451980
  H      1.025330   -3.558550    1.360890
  H      5.484620   -4.280840   -0.589310
  H      4.582040   -2.026450   -0.471590
  H      4.034430   -7.261720    0.966760
  H      5.453720   -6.242230   -1.549500
  H      5.078670   -8.900750    1.664360
  H      5.511950  -10.590730    1.345050
  H      3.106800   -9.168220    0.075070
  H      3.054160  -10.349710    1.379860
  H      3.616490  -10.835320   -0.219850
  H      8.481620   -7.636580   -5.377130
  H      9.285130   -9.220990   -5.353170
  H     10.201400   -6.622060   -3.999650
  H     10.969850   -7.383940   -5.392600
  H     11.054050   -8.151360   -3.798780
  H      8.727500  -11.853960   -2.571060
  H     10.790210  -10.262100   -4.181830
  H     11.555310  -18.879390   -2.852650
  H     13.813200  -18.124010   -4.125350
  H     14.190880  -11.967760   -5.135400
  H     11.779350  -10.330300   -6.081110
  H     13.548310   -8.848950   -6.882850
  H     18.303760  -13.132350   -7.611030

 Total Charge           Charge          ....    0
 Multiplicity           Mult            ....    1
 Number of Electrons    NEL             ....  528
 Basis Dimension        Dim             .... 1163

ORBITAL ENERGIES
----------------

  NO   OCC          E(Eh)            E(eV)
   0   2.0000    -101.628202     -2765.4440
   1   2.0000    -101.615606     -2765.1012
   2   2.0000     -89.006075     -2421.9784
   3   2.0000     -88.990569     -2421.5565
   4   2.0000     -19.261200      -524.1239
   5   2.0000     -19.259812      -524.0861
   6   2.0000     -19.236653      -523.4560
   7   2.0000     -19.218283      -522.9561
   8   2.0000     -19.213628      -522.8294
   9   2.0000     -19.208336      -522.6854
  10   2.0000     -19.198733      -522.4241
  11   2.0000     -14.666425      -399.0937
  12   2.0000     -14.467237      -393.6735
  13   2.0000     -14.463563      -393.5736
  14   2.0000     -14.433520      -392.7560
  15   2.0000     -14.432569      -392.7302
  16   2.0000     -14.416629      -392.2964
  17   2.0000     -14.412137      -392.1742
  18   2.0000     -14.409536      -392.1034
  19   2.0000     -14.404029      -391.9536
  20   2.0000     -10.394054      -282.8366
  21   2.0000     -10.389840      -282.7219
  22   2.0000     -10.388702      -282.6910
  23   2.0000     -10.383247      -282.5425
  24   2.0000     -10.374362      -282.3007
  25   2.0000     -10.373933      -282.2891
  26   2.0000     -10.373052      -282.2651
  27   2.0000     -10.363244      -281.9982
  28   2.0000     -10.362212      -281.9701
  29   2.0000     -10.359282      -281.8904
  30   2.0000     -10.350372      -281.6479
  31   2.0000     -10.350261      -281.6449
  32   2.0000     -10.345709      -281.5210
  33   2.0000     -10.345646      -281.5193
  34   2.0000     -10.345015      -281.5022
  35   2.0000     -10.341928      -281.4182
  36   2.0000     -10.338084      -281.3136
  37   2.0000     -10.335075      -281.2317
  38   2.0000     -10.333966      -281.2015
  39   2.0000     -10.333114      -281.1783
  40   2.0000     -10.332768      -281.1689
  41   2.0000     -10.325600      -280.9739
  42   2.0000     -10.325255      -280.9645
  43   2.0000     -10.325148      -280.9615
  44   2.0000     -10.324844      -280.9533
  45   2.0000     -10.323920      -280.9281
  46   2.0000     -10.321199      -280.8541
  47   2.0000     -10.320076      -280.8235
  48   2.0000     -10.318867      -280.7906
  49   2.0000     -10.317852      -280.7630
  50   2.0000     -10.317827      -280.7624
  51   2.0000     -10.315925      -280.7106
  52   2.0000     -10.314331      -280.6672
  53   2.0000     -10.314086      -280.6605
  54   2.0000     -10.313570      -280.6465
  55   2.0000     -10.313385      -280.6415
  56   2.0000     -10.312855      -280.6271
  57   2.0000     -10.309828      -280.5447
  58   2.0000     -10.309598      -280.5384
  59   2.0000     -10.309132      -280.5257
  60   2.0000     -10.307535      -280.4823
  61   2.0000     -10.307217      -280.4736
  62   2.0000     -10.305606      -280.4298
  63   2.0000     -10.302169      -280.3363
  64   2.0000     -10.301531      -280.3189
  65   2.0000     -10.297911      -280.2204
  66   2.0000     -10.294293      -280.1219
  67   2.0000     -10.288559      -279.9659
  68   2.0000     -10.287975      -279.9500
  69   2.0000     -10.281463      -279.7728
  70   2.0000     -10.274321      -279.5785
  71   2.0000     -10.271960      -279.5142
  72   2.0000     -10.261160      -279.2204
  73   2.0000      -9.582982      -260.7662
  74   2.0000      -9.570392      -260.4236
  75   2.0000      -8.101776      -220.4605
  76   2.0000      -8.086284      -220.0390
  77   2.0000      -7.353633      -200.1025
  78   2.0000      -7.343027      -199.8139
  79   2.0000      -7.342439      -199.7979
  80   2.0000      -7.341025      -199.7595
  81   2.0000      -7.330424      -199.4710
  82   2.0000      -7.329905      -199.4569
  83   2.0000      -6.071120      -165.2036
  84   2.0000      -6.066505      -165.0780
  85   2.0000      -6.064091      -165.0123
  86   2.0000      -6.055655      -164.7827
  87   2.0000      -6.051067      -164.6579
  88   2.0000      -6.048539      -164.5891
  89   2.0000      -1.341888       -36.5146
  90   2.0000      -1.160368       -31.5752
  91   2.0000      -1.154704       -31.4211
  92   2.0000      -1.147682       -31.2300
  93   2.0000      -1.138141       -30.9704
  94   2.0000      -1.135113       -30.8880
  95   2.0000      -1.127044       -30.6684
  96   2.0000      -1.078626       -29.3509
  97   2.0000      -1.076204       -29.2850
  98   2.0000      -1.065473       -28.9930
  99   2.0000      -1.058651       -28.8074
 100   2.0000      -1.050898       -28.5964
 101   2.0000      -1.035333       -28.1728
 102   2.0000      -1.030209       -28.0334
 103   2.0000      -1.012527       -27.5523
 104   2.0000      -1.011786       -27.5321
 105   2.0000      -1.011008       -27.5109
 106   2.0000      -1.000362       -27.2212
 107   2.0000      -0.992853       -27.0169
 108   2.0000      -0.984932       -26.8014
 109   2.0000      -0.968211       -26.3464
 110   2.0000      -0.954041       -25.9608
 111   2.0000      -0.944312       -25.6960
 112   2.0000      -0.941905       -25.6305
 113   2.0000      -0.940006       -25.5789
 114   2.0000      -0.933050       -25.3896
 115   2.0000      -0.924876       -25.1672
 116   2.0000      -0.918582       -24.9959
 117   2.0000      -0.912846       -24.8398
 118   2.0000      -0.903469       -24.5847
 119   2.0000      -0.897015       -24.4090
 120   2.0000      -0.886222       -24.1153
 121   2.0000      -0.882376       -24.0107
 122   2.0000      -0.865460       -23.5504
 123   2.0000      -0.859208       -23.3803
 124   2.0000      -0.845358       -23.0034
 125   2.0000      -0.837504       -22.7896
 126   2.0000      -0.832752       -22.6603
 127   2.0000      -0.829226       -22.5644
 128   2.0000      -0.828838       -22.5538
 129   2.0000      -0.820039       -22.3144
 130   2.0000      -0.805093       -21.9077
 131   2.0000      -0.787053       -21.4168
 132   2.0000      -0.781891       -21.2763
 133   2.0000      -0.767981       -20.8978
 134   2.0000      -0.767847       -20.8942
 135   2.0000      -0.760015       -20.6811
 136   2.0000      -0.752632       -20.4802
 137   2.0000      -0.746319       -20.3084
 138   2.0000      -0.741022       -20.1642
 139   2.0000      -0.726097       -19.7581
 140   2.0000      -0.718351       -19.5473
 141   2.0000      -0.714752       -19.4494
 142   2.0000      -0.708614       -19.2824
 143   2.0000      -0.699872       -19.0445
 144   2.0000      -0.696911       -18.9639
 145   2.0000      -0.691144       -18.8070
 146   2.0000      -0.689728       -18.7684
 147   2.0000      -0.686825       -18.6895
 148   2.0000      -0.672553       -18.3011
 149   2.0000      -0.668482       -18.1903
 150   2.0000      -0.666418       -18.1341
 151   2.0000      -0.658334       -17.9142
 152   2.0000      -0.656383       -17.8611
 153   2.0000      -0.650540       -17.7021
 154   2.0000      -0.643544       -17.5117
 155   2.0000      -0.636840       -17.3293
 156   2.0000      -0.630537       -17.1578
 157   2.0000      -0.628417       -17.1001
 158   2.0000      -0.620651       -16.8888
 159   2.0000      -0.618994       -16.8437
 160   2.0000      -0.614911       -16.7326
 161   2.0000      -0.611944       -16.6518
 162   2.0000      -0.610315       -16.6075
 163   2.0000      -0.605104       -16.4657
 164   2.0000      -0.603492       -16.4219
 165   2.0000      -0.597004       -16.2453
 166   2.0000      -0.595047       -16.1921
 167   2.0000      -0.584691       -15.9103
 168   2.0000      -0.576846       -15.6968
 169   2.0000      -0.574253       -15.6262
 170   2.0000      -0.572703       -15.5840
 171   2.0000      -0.568602       -15.4724
 172   2.0000      -0.566363       -15.4115
 173   2.0000      -0.564752       -15.3677
 174   2.0000      -0.559352       -15.2208
 175   2.0000      -0.552692       -15.0395
 176   2.0000      -0.551433       -15.0053
 177   2.0000      -0.548360       -14.9216
 178   2.0000      -0.547412       -14.8959
 179   2.0000      -0.545617       -14.8470
 180   2.0000      -0.543717       -14.7953
 181   2.0000      -0.542331       -14.7576
 182   2.0000      -0.538711       -14.6591
 183   2.0000      -0.537979       -14.6392
 184   2.0000      -0.530641       -14.4395
 185   2.0000      -0.529508       -14.4086
 186   2.0000      -0.529261       -14.4019
 187   2.0000      -0.527825       -14.3628
 188   2.0000      -0.524376       -14.2690
 189   2.0000      -0.522073       -14.2063
 190   2.0000      -0.519602       -14.1391
 191   2.0000      -0.518883       -14.1195
 192   2.0000      -0.517951       -14.0942
 193   2.0000      -0.514432       -13.9984
 194   2.0000      -0.508797       -13.8451
 195   2.0000      -0.506933       -13.7944
 196   2.0000      -0.503117       -13.6905
 197   2.0000      -0.500514       -13.6197
 198   2.0000      -0.498401       -13.5622
 199   2.0000      -0.497810       -13.5461
 200   2.0000      -0.494346       -13.4519
 201   2.0000      -0.492344       -13.3973
 202   2.0000      -0.489285       -13.3141
 203   2.0000      -0.484627       -13.1874
 204   2.0000      -0.481155       -13.0929
 205   2.0000      -0.478761       -13.0277
 206   2.0000      -0.477895       -13.0042
 207   2.0000      -0.474553       -12.9132
 208   2.0000      -0.473794       -12.8926
 209   2.0000      -0.471754       -12.8371
 210   2.0000      -0.469723       -12.7818
 211   2.0000      -0.466714       -12.6999
 212   2.0000      -0.465960       -12.6794
 213   2.0000      -0.464699       -12.6451
 214   2.0000      -0.462106       -12.5745
 215   2.0000      -0.459499       -12.5036
 216   2.0000      -0.458774       -12.4839
 217   2.0000      -0.457432       -12.4474
 218   2.0000      -0.456150       -12.4125
 219   2.0000      -0.454623       -12.3709
 220   2.0000      -0.452744       -12.3198
 221   2.0000      -0.450286       -12.2529
 222   2.0000      -0.449390       -12.2285
 223   2.0000      -0.446990       -12.1632
 224   2.0000      -0.445634       -12.1263
 225   2.0000      -0.443747       -12.0750
 226   2.0000      -0.442615       -12.0442
 227   2.0000      -0.441102       -12.0030
 228   2.0000      -0.436583       -11.8800
 229   2.0000      -0.431121       -11.7314
 230   2.0000      -0.430491       -11.7143
 231   2.0000      -0.428333       -11.6555
 232   2.0000      -0.426343       -11.6014
 233   2.0000      -0.425994       -11.5919
 234   2.0000      -0.419866       -11.4251
 235   2.0000      -0.414315       -11.2741
 236   2.0000      -0.410952       -11.1826
 237   2.0000      -0.408284       -11.1100
 238   2.0000      -0.401432       -10.9235
 239   2.0000      -0.399568       -10.8728
 240   2.0000      -0.397959       -10.8290
 241   2.0000      -0.388986       -10.5849
 242   2.0000      -0.385449       -10.4886
 243   2.0000      -0.383505       -10.4357
 244   2.0000      -0.369647       -10.0586
 245   2.0000      -0.367556       -10.0017
 246   2.0000      -0.362056        -9.8521
 247   2.0000      -0.360510        -9.8100
 248   2.0000      -0.354361        -9.6427
 249   2.0000      -0.352020        -9.5789
 250   2.0000      -0.350505        -9.5377
 251   2.0000      -0.347558        -9.4575
 252   2.0000      -0.342993        -9.3333
 253   2.0000      -0.342771        -9.3273
 254   2.0000      -0.333721        -9.0810
 255   2.0000      -0.332207        -9.0398
 256   2.0000      -0.330468        -8.9925
 257   2.0000      -0.330115        -8.9829
 258   2.0000      -0.328743        -8.9455
 259   2.0000      -0.317705        -8.6452
 260   2.0000      -0.315299        -8.5797
 261   2.0000      -0.311090        -8.4652
 262   2.0000      -0.291184        -7.9235
 263   2.0000      -0.251947        -6.8558
 264   0.0000      -0.129715        -3.5297
 265   0.0000      -0.108150        -2.9429
 266   0.0000      -0.095448        -2.5973
 267   0.0000      -0.079080        -2.1519
 268   0.0000      -0.063881        -1.7383

MULLIKEN ATOMIC CHARGES
-----------------------
   0 C :    0.033575
   1 C :   -0.126896
   2 S :    0.197816
   3 C :   -0.167504
   4 Cl:    0.008565
   5 C :    0.071415
   6 C :    0.143674
   7 O :   -0.121433
   8 C :   -0.089810
   9 C :    0.280546
  10 C :   -0.313741
  11 C :   -0.192272
  12 N :    0.165162
  13 C :   -0.197927
  14 N :    0.170738
  15 C :   -0.028836
  16 C :    0.056055
  17 C :   -0.048309
  18 C :    0.142932
  19 N :    0.249774
  20 O :   -0.223043
  21 O :   -0.237590
  22 C :    0.063660
  23 C :   -0.049278
  24 C :    0.114256
  25 C :    0.023657
  26 C :   -0.044652
  27 C :    0.135383
  28 N :   -0.272039
  29 C :    0.087827
  30 C :    0.000286
  31 C :    0.155002
  32 O :   -0.159363
  33 C :   -0.017509
  34 C :   -0.058646
  35 C :    0.156210
  36 O :   -0.198629
  37 N :   -0.276121
  38 C :    0.104793
  39 C :   -0.001694
  40 C :    0.129179
  41 C :    0.010157
  42 C :   -0.041621
  43 C :    0.029060
  44 N :   -0.032544
  45 C :    0.077756
  46 C :   -0.119371
  47 C :    0.223343
  48 O :   -0.142023
  49 C :   -0.036738
  50 C :   -0.029767
  51 N :   -0.050243
  52 C :    0.093390
  53 C :   -0.089180
  54 C :    0.034011
  55 C :   -0.018872
  56 C :    0.011702
  57 C :    0.026100
  58 C :   -0.123720
  59 C :    0.127534
  60 O :   -0.132772
  61 C :    0.095955
  62 C :   -0.173752
  63 S :    0.183519
  64 C :   -0.125558
  65 C :    0.005826
  66 C :    0.262383
  67 C :   -0.312749
  68 C :   -0.167118
  69 N :    0.157116
  70 C :   -0.190379
  71 N :    0.172663
  72 Cl:   -0.002839
  73 H :    0.057146
  74 H :    0.043317
  75 H :    0.010934
  76 H :    0.006179
  77 H :   -0.001205
  78 H :    0.014062
  79 H :    0.022755
  80 H :    0.026623
  81 H :    0.047479
  82 H :    0.037685
  83 H :    0.027373
  84 H :    0.024715
  85 H :    0.039941
  86 H :    0.027129
  87 H :    0.035003
  88 H :    0.023647
  89 H :    0.026766
  90 H :    0.047257
  91 H :   -0.041547
  92 H :    0.010657
  93 H :   -0.002414
  94 H :    0.036863
  95 H :    0.006572
  96 H :    0.029106
  97 H :    0.057473
Sum of atomic charges:   -0.0000000

LOEWDIN ATOMIC CHARGES
----------------------
   0 C :   -0.060115
   1 C :   -0.147026
   2 S :    0.486148
   3 C :   -0.270006
   4 Cl:    0.199085
   5 C :   -0.119066
   6 C :    0.080769
   7 O :   -0.119540
   8 C :   -0.075818
   9 C :    0.072292
  10 C :   -0.126759
  11 C :   -0.015903
  12 N :   -0.042035
  13 C :   -0.025724
  14 N :   -0.036610
  15 C :    0.076079
  16 C :   -0.033997
  17 C :    0.024477
  18 C :   -0.028881
  19 N :    0.287222
  20 O :   -0.191051
  21 O :   -0.194082
  22 C :    0.006448
  23 C :   -0.001101
  24 C :    0.046758
  25 C :    0.014206
  26 C :   -0.022988
  27 C :    0.090905
  28 N :   -0.003117
  29 C :    0.034138
  30 C :   -0.062108
  31 C :    0.088828
  32 O :   -0.159408
  33 C :   -0.091376
  34 C :   -0.120024
  35 C :    0.077785
  36 O :   -0.198977
  37 N :   -0.004876
  38 C :    0.036618
  39 C :   -0.063156
  40 C :    0.059841
  41 C :    0.045137
  42 C :   -0.045078
  43 C :    0.070713
  44 N :   -0.100470
  45 C :    0.044513
  46 C :   -0.022206
  47 C :    0.070362
  48 O :   -0.146537
  49 C :   -0.041250
  50 C :    0.028740
  51 N :   -0.094234
  52 C :    0.077930
  53 C :   -0.034148
  54 C :   -0.034622
  55 C :    0.028713
  56 C :   -0.033835
  57 C :    0.062217
  58 C :   -0.078158
  59 C :    0.081044
  60 O :   -0.135773
  61 C :   -0.119662
  62 C :   -0.273332
  63 S :    0.474086
  64 C :   -0.150836
  65 C :   -0.055601
  66 C :    0.058588
  67 C :   -0.119159
  68 C :   -0.010690
  69 N :   -0.046346
  70 C :   -0.013513
  71 N :   -0.043915
  72 Cl:    0.189714
  73 H :    0.039196
  74 H :    0.050014
  75 H :    0.044655
  76 H :    0.041687
  77 H :    0.038623
  78 H :    0.030655
  79 H :    0.047876
  80 H :    0.021644
  81 H :    0.038755
  82 H :    0.024636
  83 H :    0.034325
  84 H :    0.031257
  85 H :    0.037769
  86 H :    0.023801
  87 H :    0.035745
  88 H :    0.029783
  89 H :    0.020998
  90 H :    0.058842
  91 H :    0.027824
  92 H :    0.024354
  93 H :    0.035838
  94 H :    0.044379
  95 H :    0.032080
  96 H :    0.046062
  97 H :    0.038955

  Mayer bond orders larger than 0.100000
B(  0-C ,  1-C ) :   1.5382 B(  0-C ,  5-C ) :   1.2196 B(  0-C ,  9-C ) :   1.0094
B(  1-C ,  2-S ) :   1.1677 B(  1-C , 73-H ) :   0.9544 B(  2-S ,  3-C ) :   1.1569
B(  3-C ,  4-Cl) :   1.1363 B(  3-C ,  5-C ) :   1.4707 B(  5-C ,  6-C ) :   0.9563
B(  6-C ,  7-O ) :   2.2446 B(  6-C ,  8-C ) :   0.9157 B(  8-C ,  9-C ) :   1.0342
B(  8-C , 15-C ) :   1.7304 B(  9-C , 10-C ) :   1.6830 B( 10-C , 11-C ) :   1.1387
B( 10-C , 13-C ) :   1.1332 B( 11-C , 12-N ) :   2.9959 B( 13-C , 14-N ) :   2.9897
B( 15-C , 16-C ) :   1.0327 B( 15-C , 74-H ) :   0.9480 B( 16-C , 17-C ) :   1.2982
B( 16-C , 24-C ) :   1.3303 B( 17-C , 18-C ) :   1.3753 B( 17-C , 75-H ) :   0.9976
B( 18-C , 19-N ) :   0.8831 B( 18-C , 22-C ) :   1.3323 B( 19-N , 20-O ) :   1.5674
B( 19-N , 21-O ) :   1.4995 B( 20-O , 21-O ) :   0.2628 B( 22-C , 23-C ) :   1.3394
B( 22-C , 25-C ) :   1.0626 B( 23-C , 24-C ) :   1.4140 B( 23-C , 76-H ) :   0.9908
B( 24-C , 77-H ) :   0.9838 B( 25-C , 26-C ) :   1.6516 B( 25-C , 78-H ) :   0.9499
B( 26-C , 27-C ) :   1.1715 B( 26-C , 79-H ) :   0.9438 B( 27-C , 28-N ) :   1.1994
B( 27-C , 34-C ) :   1.3238 B( 28-N , 29-C ) :   0.9328 B( 28-N , 31-C ) :   1.0128
B( 29-C , 30-C ) :   1.1191 B( 29-C , 80-H ) :   0.9496 B( 29-C , 81-H ) :   0.9229
B( 30-C , 82-H ) :   0.9660 B( 30-C , 83-H ) :   0.9668 B( 30-C , 84-H ) :   0.9596
B( 31-C , 32-O ) :   2.1629 B( 31-C , 33-C ) :   0.9611 B( 33-C , 34-C ) :   1.2539
B( 33-C , 40-C ) :   1.3435 B( 34-C , 35-C ) :   0.9848 B( 35-C , 36-O ) :   2.1147
B( 35-C , 37-N ) :   1.0424 B( 37-N , 38-C ) :   0.9394 B( 37-N , 40-C ) :   1.1656
B( 38-C , 39-C ) :   1.1170 B( 38-C , 85-H ) :   0.9285 B( 38-C , 86-H ) :   0.9511
B( 39-C , 87-H ) :   0.9577 B( 39-C , 88-H ) :   0.9679 B( 39-C , 89-H ) :   0.9630
B( 40-C , 41-C ) :   1.1398 B( 41-C , 42-C ) :   1.5540 B( 41-C , 90-H ) :   0.9593
B( 42-C , 43-C ) :   1.1634 B( 42-C , 91-H ) :   0.9579 B( 43-C , 44-N ) :   1.5777
B( 43-C , 45-C ) :   0.1045 B( 43-C , 54-C ) :   0.9970 B( 44-N , 45-C ) :   1.3811
B( 45-C , 46-C ) :   1.0418 B( 45-C , 50-C ) :   1.3857 B( 46-C , 47-C ) :   0.8897
B( 46-C , 54-C ) :   1.5932 B( 47-C , 48-O ) :   2.2279 B( 47-C , 49-C ) :   0.9147
B( 49-C , 50-C ) :   1.0608 B( 49-C , 53-C ) :   1.5982 B( 50-C , 51-N ) :   1.3322
B( 51-N , 52-C ) :   1.6333 B( 52-C , 53-C ) :   1.0830 B( 52-C , 92-H ) :   0.9892
B( 53-C , 93-H ) :   1.0098 B( 54-C , 55-C ) :   1.1122 B( 55-C , 56-C ) :   1.7038
B( 55-C , 94-H ) :   0.9493 B( 56-C , 57-C ) :   1.1059 B( 56-C , 95-H ) :   0.9507
B( 57-C , 58-C ) :   1.7405 B( 57-C , 96-H ) :   0.9248 B( 58-C , 59-C ) :   0.9394
B( 58-C , 66-C ) :   1.0058 B( 59-C , 60-O ) :   2.2696 B( 59-C , 61-C ) :   0.9281
B( 61-C , 62-C ) :   1.4769 B( 61-C , 65-C ) :   1.2228 B( 62-C , 63-S ) :   1.1545
B( 62-C , 72-Cl) :   1.1265 B( 63-S , 64-C ) :   1.1559 B( 64-C , 65-C ) :   1.5578
B( 64-C , 97-H ) :   0.9549 B( 65-C , 66-C ) :   1.0079 B( 66-C , 67-C ) :   1.6941
B( 67-C , 68-C ) :   1.1277 B( 67-C , 70-C ) :   1.1725 B( 68-C , 69-N ) :   2.9989
B( 70-C , 71-N ) :   2.9778

-----------------------------------------------------------------------------
         ABSORPTION SPECTRUM VIA TRANSITION ELECTRIC DIPOLE MOMENTS
-----------------------------------------------------------------------------
State   Energy  Wavelength   fosc         T2         TX        TY        TZ
        (cm-1)    (nm)                  (au**2)     (au)      (au)      (au)
-----------------------------------------------------------------------------
   0   12383.4    807.5   0.968703067  25.75289   3.29917  -3.37662  -1.86192
   1   18418.6    542.9   0.054790219   0.97932  -0.37603   0.91533  -0.00941
   2   19408.5    515.2   0.082427010   1.39815  -0.84351   0.34564   0.75311
   3   21373.9    467.9   0.026901613   0.41435  -0.34390  -0.24744   0.48463
   4   21408.2    467.1   0.081804043   1.25797   0.65654   0.56565  -0.71202
   5   23739.3    421.2   0.074770355   1.03690   0.69159  -0.08567  -0.74247
   6   24089.5    415.1   0.105813218   1.44606   0.04468   1.06693  -0.55294
   7   24230.7    412.7   0.102356375   1.39067   0.61309   0.50053  -0.87422
   8   24725.0    404.4   0.015717421   0.20928   0.24605   0.11770  -0.36726
   9   24847.6    402.5   0.001380067   0.01828  -0.07534  -0.05449   0.09818
  10   25788.1    387.8   0.509669411   6.50647  -1.09891   2.30110   0.06179
  11   26110.8    383.0   0.104734642   1.32052   0.21726  -1.12305  -0.10993
  12   26183.4    381.9   0.027357578   0.34397   0.41045   0.22154  -0.35556
  13   26478.9    377.7   0.019203859   0.23876  -0.03165   0.48688  -0.02667
  14   26837.7    372.6   0.050023801   0.61363  -0.35912   0.62258   0.31153
  15   27195.5    367.7   0.184462808   2.23299   0.10230  -1.35366   0.62461
  16   28742.5    347.9   0.044297190   0.50737  -0.69931   0.00620   0.13529
  17   28860.1    346.5   0.125282454   1.42912  -0.50485   0.98385   0.45420
  18   29427.6    339.8   0.012979603   0.14521   0.30337  -0.17046  -0.15530
  19   29583.6    338.0   0.146513205   1.63043   0.79986  -0.99266  -0.07262
  20   29691.6    336.8   0.010563449   0.11712  -0.25558   0.18594  -0.13125
  21   30107.8    332.1   0.016547787   0.18094   0.11077  -0.28494   0.29577
  22   30296.0    330.1   0.095297881   1.03556  -0.43309   0.85855  -0.33300
  23   30826.2    324.4   0.065848897   0.70324  -0.42898  -0.67137   0.26168
  24   31245.2    320.0   0.060284370   0.63518  -0.70584  -0.16558   0.33099
  25   31733.8    315.1   0.032257051   0.33464   0.54708  -0.18131  -0.04967
  26   32073.3    311.8   0.013996660   0.14367  -0.14344   0.30253   0.17767
  27   32124.0    311.3   0.178402021   1.82829   0.20651  -1.33384  -0.08068
  28   33046.6    302.6   0.044428745   0.44260   0.34565  -0.38815   0.41529
  29   33162.8    301.5   0.049486729   0.49126   0.49851   0.22979  -0.43583
  30   33371.7    299.7   0.013363830   0.13183   0.30819  -0.10257   0.16227
  31   33797.3    295.9   0.186588910   1.81752   0.69794   1.06734  -0.43727
  32   33961.7    294.4   0.021028004   0.20384   0.34168   0.04127  -0.29221
  33   34238.6    292.1   0.011493403   0.11051   0.17113   0.26615  -0.10195
  34   34478.1    290.0   0.109654301   1.04703   0.57287   0.84778   0.01073
  35   34843.9    287.0   0.009110539   0.08608   0.03182  -0.26281   0.12648
  36   34948.1    286.1   0.084265382   0.79378  -0.08334  -0.84641   0.26539
  37   35090.9    285.0   0.320359554   3.00552  -0.07115   1.68510  -0.40113
  38   35156.9    284.4   0.018144877   0.16991  -0.32790  -0.20655   0.14046
  39   35437.1    282.2   0.118642261   1.10219   0.46794   0.81404  -0.46965
  40   35712.3    280.0   0.059281852   0.54649   0.46879   0.52600  -0.22369
  41   35740.8    279.8   0.016402291   0.15108   0.08706   0.36958  -0.08315
  42   35848.9    278.9   0.114661536   1.05297   0.19473   0.16212  -0.99437
  43   36045.0    277.4   0.018675905   0.17057   0.01853   0.41243   0.01134
  44   36424.7    274.5   0.059141427   0.53453   0.58869   0.43252   0.03008
  45   36603.1    273.2   0.282773480   2.54329  -0.34047  -1.55056   0.15209
  46   36912.0    270.9   0.026598761   0.23723  -0.36938   0.29911  -0.10642
  47   37094.1    269.6   0.031814713   0.28236   0.19761  -0.23557   0.43338
  48   37321.2    267.9   0.131651932   1.16131   0.94154   0.07653  -0.51860
  49   37383.3    267.5   0.242187126   2.13279   0.32426  -0.23747   1.40401
  50   37493.7    266.7   0.040524843   0.35583  -0.37603  -0.31064  -0.34341
  51   38102.9    262.4   0.124893265   1.07909   0.35919  -0.20650  -0.95259
  52   38315.6    261.0   0.271202209   2.33020   0.84312  -0.10779  -1.26796
  53   38817.2    257.6   0.330977404   2.80705   1.41444   0.89705  -0.04151
  54   38896.4    257.1   0.018679458   0.15810  -0.36725  -0.15240   0.00202
  55   39095.3    255.8   0.062503531   0.52633  -0.60287   0.21481   0.34165
  56   39197.6    255.1   0.068039784   0.57145   0.03892   0.25514  -0.71052
  57   39308.9    254.4   0.065215207   0.54618   0.17962  -0.29654  -0.65267
  58   39361.3    254.1   0.145446989   1.21650   0.36266   0.24880  -1.01147
  59   39535.5    252.9   0.051005250   0.42472   0.23408   0.38164  -0.47358
  60   39864.9    250.8   0.081755912   0.67516   0.06859   0.81739  -0.04822
  61   40113.5    249.3   0.022762831   0.18681   0.42210  -0.05197  -0.07709
  62   40207.4    248.7   0.046089763   0.37738   0.12260   0.38253   0.46477

FINAL SINGLE POINT ENERGY     -4766.175219390333

DIPOLE MOMENT
-------------
                                X             Y             Z
Electronic contribution:     23.11563      36.27123     -31.15240
Nuclear contribution   :    -22.79298     -33.93982      30.82743
                        -----------------------------------------
Total Dipole Moment    :      0.32265       2.33141      -0.32497
                        -----------------------------------------
Magnitude (a.u.)       :      2.37596
Magnitude (Debye)      :      6.03920

Rotational constants in cm-1:     0.001215     0.000240     0.000207
Rotational constants in MHz :    36.413071     7.197740     6.220322

                             ****ORCA TERMINATED NORMALLY****
TOTAL RUN TIME: 0 days 0 hours 13 minutes 18 seconds 511 msec
