                         Program Version 4.2.0 -  RELEASE  -
|  1> # ORCA input file
|  2> # SCF done       -145.729970059322          0.000810813961
|  3> ! CAM-B3LYP def2-SVP def2/J RIJCOSX Grid4 TightSCF
|  4> %maxcore 5000
|  5> %tddft
|  6>     Mode sTDDFT
|  7>     Ethresh 5.0
|  8>     maxcore 5000
|  9> end
| 10>
| 11> %pal
| 12>   nprocs 6
| 13>   end
| 14> * xyz 0 1
| 15>    C        3.86806         5.63516         6.75809
| 16>    N        3.94265         6.21389         5.52821
| 17>    C        5.14417         6.70053         4.89875
| 18>    C        5.57842         8.04203         5.48382
| 19>    C        2.66488         6.35816         4.94710
| 20>    O        2.48159         6.84582         3.84654
| 21>    C        1.76955         5.80330         5.93066
| 22>    C        2.56236         5.36112         7.04322
| 23>    C        1.66517         4.80458         8.03346
| 24>    O        1.84971         4.31411         9.12472
| 25>    N        0.38526         4.95528         7.45619
| 26>    C       -0.79288         4.45837         8.12319
| 27>    C       -1.25532         3.12432         7.54139
| 28>    C        0.44236         5.54154         6.21311
| 29>    C       -0.71859         5.82557         5.42354
| 30>    C       -0.64375         6.37107         4.20180
| 31>    C       -1.83372         6.68424         3.37873
| 32>    C       -1.90555         6.15068         1.94228
| 33>    O       -1.83423         5.06538         1.46229
| 34>    C       -1.96491         8.09082         2.78151
| 35>    O       -1.94895         9.18716         3.24043
| 36>    C       -2.14155         7.54707         1.36261
| 37>    C       -3.52951         7.75592         0.76882
| 38>    C       -4.65783         6.89622         1.32630
| 39>    O       -4.89794         6.47737         2.41470
| 40>    C       -3.88109         7.16141        -0.59748
| 41>    O       -3.30329         7.07935        -1.63098
| 42>    C       -5.21911         6.62572        -0.07069
| 43>    C       -6.37765         7.56183        -0.38933
| 44>    C       -7.66519         7.61650         0.40033
| 45>    O       -7.98587         7.43105         1.52816
| 46>    C       -7.20340         7.52209        -1.64891
| 47>    O       -7.03023         7.21794        -2.78347
| 48>    C       -8.47540         7.95470        -0.87268
| 49>    C       -8.83086         9.37945        -1.01895
| 50>    N      -10.06390         9.80206        -1.41908
| 51>    C      -11.17252         8.98229        -1.84428
| 52>    C      -10.96608         8.44344        -3.25797
| 53>    C      -10.14701        11.21868        -1.45536
| 54>    O      -11.15564        11.80859        -1.77650
| 55>    C       -8.84070        11.65798        -1.03740
| 56>    C       -8.04594        10.49140        -0.77899
| 57>    C       -6.74170        10.94899        -0.37654
| 58>    O       -5.71525        10.34125        -0.07522
| 59>    N       -6.81848        12.33596        -0.40767
| 60>    C       -5.69632        13.15624        -0.01471
| 61>    C       -5.84200        13.66739         1.41600
| 62>    C       -8.06819        12.77699        -0.79595
| 63>    C       -8.40981        14.16608        -0.91491
| 64>    C       -9.62431        14.58596        -1.27407
| 65>    H        4.75468         5.45401         7.33726
| 66>    H        4.91436         6.81448         3.83599
| 67>    H        5.93769         5.95693         5.01795
| 68>    H        4.79388         8.78124         5.34230
| 69>    H        6.47909         8.38924         4.98543
| 70>    H        5.78089         7.94882         6.54863
| 71>    H       -1.59036         5.20510         8.06979
| 72>    H       -0.50914         4.32245         9.17076
| 73>    H       -1.49382         3.21962         6.48433
| 74>    H       -2.13882         2.77790         8.07055
| 75>    H       -0.46987         2.38079         7.65182
| 76>    H       -1.68249         5.58956         5.85293
| 77>    H        0.31798         6.60769         3.76722
| 78>    H       -2.75738         6.42007         3.90713
| 79>    H       -1.38056         7.87579         0.65011
| 80>    H       -3.78891         8.82084         0.79282
| 81>    H       -5.46680         5.59018        -0.30951
| 82>    H       -5.99983         8.61432        -0.32579
| 83>    H       -9.33363         7.30282        -1.03570
| 84>    H      -12.05024         9.63425        -1.82335
| 85>    H      -11.32727         8.16840        -1.12968
| 86>    H      -10.88806         9.26943        -3.96043
| 87>    H      -11.81365         7.82615        -3.54207
| 88>    H      -10.05890         7.84728        -3.32795
| 89>    H       -5.58850        13.98565        -0.71836
| 90>    H       -4.81128        12.51850        -0.08823
| 91>    H       -6.73982        14.27156         1.52553
| 92>    H       -4.97807        14.27100         1.67931
| 93>    H       -5.90271        12.82966         2.10636
| 94>    H       -7.62814        14.88095        -0.69995
| 95>    H      -10.42061        13.89445        -1.49178
| 96>    H       -9.84751        15.63558        -1.35601
| 97> *
| 98>
| 99>                          ****END OF INPUT****

CARTESIAN COORDINATES (ANGSTROEM)
---------------------------------
  C      3.868060    5.635160    6.758090
  N      3.942650    6.213890    5.528210
  C      5.144170    6.700530    4.898750
  C      5.578420    8.042030    5.483820
  C      2.664880    6.358160    4.947100
  O      2.481590    6.845820    3.846540
  C      1.769550    5.803300    5.930660
  C      2.562360    5.361120    7.043220
  C      1.665170    4.804580    8.033460
  O      1.849710    4.314110    9.124720
  N      0.385260    4.955280    7.456190
  C     -0.792880    4.458370    8.123190
  C     -1.255320    3.124320    7.541390
  C      0.442360    5.541540    6.213110
  C     -0.718590    5.825570    5.423540
  C     -0.643750    6.371070    4.201800
  C     -1.833720    6.684240    3.378730
  C     -1.905550    6.150680    1.942280
  O     -1.834230    5.065380    1.462290
  C     -1.964910    8.090820    2.781510
  O     -1.948950    9.187160    3.240430
  C     -2.141550    7.547070    1.362610
  C     -3.529510    7.755920    0.768820
  C     -4.657830    6.896220    1.326300
  O     -4.897940    6.477370    2.414700
  C     -3.881090    7.161410   -0.597480
  O     -3.303290    7.079350   -1.630980
  C     -5.219110    6.625720   -0.070690
  C     -6.377650    7.561830   -0.389330
  C     -7.665190    7.616500    0.400330
  O     -7.985870    7.431050    1.528160
  C     -7.203400    7.522090   -1.648910
  O     -7.030230    7.217940   -2.783470
  C     -8.475400    7.954700   -0.872680
  C     -8.830860    9.379450   -1.018950
  N    -10.063900    9.802060   -1.419080
  C    -11.172520    8.982290   -1.844280
  C    -10.966080    8.443440   -3.257970
  C    -10.147010   11.218680   -1.455360
  O    -11.155640   11.808590   -1.776500
  C     -8.840700   11.657980   -1.037400
  C     -8.045940   10.491400   -0.778990
  C     -6.741700   10.948990   -0.376540
  O     -5.715250   10.341250   -0.075220
  N     -6.818480   12.335960   -0.407670
  C     -5.696320   13.156240   -0.014710
  C     -5.842000   13.667390    1.416000
  C     -8.068190   12.776990   -0.795950
  C     -8.409810   14.166080   -0.914910
  C     -9.624310   14.585960   -1.274070
  H      4.754680    5.454010    7.337260
  H      4.914360    6.814480    3.835990
  H      5.937690    5.956930    5.017950
  H      4.793880    8.781240    5.342300
  H      6.479090    8.389240    4.985430
  H      5.780890    7.948820    6.548630
  H     -1.590360    5.205100    8.069790
  H     -0.509140    4.322450    9.170760
  H     -1.493820    3.219620    6.484330
  H     -2.138820    2.777900    8.070550
  H     -0.469870    2.380790    7.651820
  H     -1.682490    5.589560    5.852930
  H      0.317980    6.607690    3.767220
  H     -2.757380    6.420070    3.907130
  H     -1.380560    7.875790    0.650110
  H     -3.788910    8.820840    0.792820
  H     -5.466800    5.590180   -0.309510
  H     -5.999830    8.614320   -0.325790
  H     -9.333630    7.302820   -1.035700
  H    -12.050240    9.634250   -1.823350
  H    -11.327270    8.168400   -1.129680
  H    -10.888060    9.269430   -3.960430
  H    -11.813650    7.826150   -3.542070
  H    -10.058900    7.847280   -3.327950
  H     -5.588500   13.985650   -0.718360
  H     -4.811280   12.518500   -0.088230
  H     -6.739820   14.271560    1.525530
  H     -4.978070   14.271000    1.679310
  H     -5.902710   12.829660    2.106360
  H     -7.628140   14.880950   -0.699950
  H    -10.420610   13.894450   -1.491780
  H     -9.847510   15.635580   -1.356010

 Total Charge           Charge          ....    0
 Multiplicity           Mult            ....    1
 Number of Electrons    NEL             ....  356
 Basis Dimension        Dim             ....  860

ORBITAL ENERGIES
----------------

  NO   OCC          E(Eh)            E(eV)
   0   2.0000     -19.243532      -523.6431
   1   2.0000     -19.241238      -523.5807
   2   2.0000     -19.240333      -523.5561
   3   2.0000     -19.232697      -523.3483
   4   2.0000     -19.230712      -523.2943
   5   2.0000     -19.229974      -523.2742
   6   2.0000     -19.212596      -522.8013
   7   2.0000     -19.206829      -522.6444
   8   2.0000     -19.183119      -521.9992
   9   2.0000     -19.180991      -521.9413
  10   2.0000     -14.471724      -393.7956
  11   2.0000     -14.470910      -393.7735
  12   2.0000     -14.447037      -393.1239
  13   2.0000     -14.445607      -393.0849
  14   2.0000     -10.396355      -282.8992
  15   2.0000     -10.391000      -282.7535
  16   2.0000     -10.388975      -282.6984
  17   2.0000     -10.388533      -282.6864
  18   2.0000     -10.382387      -282.5191
  19   2.0000     -10.378225      -282.4059
  20   2.0000     -10.372748      -282.2568
  21   2.0000     -10.372517      -282.2505
  22   2.0000     -10.367456      -282.1128
  23   2.0000     -10.366850      -282.0963
  24   2.0000     -10.365646      -282.0636
  25   2.0000     -10.350727      -281.6576
  26   2.0000     -10.335823      -281.2520
  27   2.0000     -10.322905      -280.9005
  28   2.0000     -10.320450      -280.8337
  29   2.0000     -10.319980      -280.8209
  30   2.0000     -10.315145      -280.6894
  31   2.0000     -10.306077      -280.4426
  32   2.0000     -10.304953      -280.4120
  33   2.0000     -10.304447      -280.3983
  34   2.0000     -10.304191      -280.3913
  35   2.0000     -10.302461      -280.3442
  36   2.0000     -10.299192      -280.2552
  37   2.0000     -10.297990      -280.2226
  38   2.0000     -10.292403      -280.0705
  39   2.0000     -10.289719      -279.9975
  40   2.0000     -10.288880      -279.9747
  41   2.0000     -10.286950      -279.9221
  42   2.0000     -10.276563      -279.6395
  43   2.0000     -10.272789      -279.5368
  44   2.0000     -10.272393      -279.5260
  45   2.0000     -10.271790      -279.5096
  46   2.0000     -10.260561      -279.2041
  47   2.0000     -10.258438      -279.1463
  48   2.0000     -10.252867      -278.9947
  49   2.0000     -10.250676      -278.9351
  50   2.0000      -1.164842       -31.6970
  51   2.0000      -1.159483       -31.5511
  52   2.0000      -1.157063       -31.4853
  53   2.0000      -1.151430       -31.3320
  54   2.0000      -1.149526       -31.2802
  55   2.0000      -1.149111       -31.2689
  56   2.0000      -1.144348       -31.1393
  57   2.0000      -1.144196       -31.1352
  58   2.0000      -1.124958       -30.6117
  59   2.0000      -1.118291       -30.4303
  60   2.0000      -1.081359       -29.4253
  61   2.0000      -1.073108       -29.2008
  62   2.0000      -1.055924       -28.7331
  63   2.0000      -1.047485       -28.5035
  64   2.0000      -0.991049       -26.9678
  65   2.0000      -0.973185       -26.4817
  66   2.0000      -0.952102       -25.9080
  67   2.0000      -0.941127       -25.6094
  68   2.0000      -0.920859       -25.0579
  69   2.0000      -0.905322       -24.6351
  70   2.0000      -0.899819       -24.4853
  71   2.0000      -0.884219       -24.0608
  72   2.0000      -0.868608       -23.6360
  73   2.0000      -0.862403       -23.4672
  74   2.0000      -0.833600       -22.6834
  75   2.0000      -0.831889       -22.6369
  76   2.0000      -0.814579       -22.1658
  77   2.0000      -0.806517       -21.9464
  78   2.0000      -0.796830       -21.6828
  79   2.0000      -0.782117       -21.2825
  80   2.0000      -0.772817       -21.0294
  81   2.0000      -0.760623       -20.6976
  82   2.0000      -0.755445       -20.5567
  83   2.0000      -0.737409       -20.0659
  84   2.0000      -0.722242       -19.6532
  85   2.0000      -0.709820       -19.3152
  86   2.0000      -0.704233       -19.1631
  87   2.0000      -0.691288       -18.8109
  88   2.0000      -0.672886       -18.3101
  89   2.0000      -0.665347       -18.1050
  90   2.0000      -0.664550       -18.0833
  91   2.0000      -0.660319       -17.9682
  92   2.0000      -0.653682       -17.7876
  93   2.0000      -0.646929       -17.6038
  94   2.0000      -0.645371       -17.5614
  95   2.0000      -0.641587       -17.4585
  96   2.0000      -0.637006       -17.3338
  97   2.0000      -0.629020       -17.1165
  98   2.0000      -0.611391       -16.6368
  99   2.0000      -0.603828       -16.4310
 100   2.0000      -0.599826       -16.3221
 101   2.0000      -0.596514       -16.2320
 102   2.0000      -0.588899       -16.0248
 103   2.0000      -0.584929       -15.9167
 104   2.0000      -0.584149       -15.8955
 105   2.0000      -0.578427       -15.7398
 106   2.0000      -0.578083       -15.7304
 107   2.0000      -0.570711       -15.5298
 108   2.0000      -0.567596       -15.4451
 109   2.0000      -0.562973       -15.3193
 110   2.0000      -0.560243       -15.2450
 111   2.0000      -0.556993       -15.1565
 112   2.0000      -0.555842       -15.1252
 113   2.0000      -0.550713       -14.9857
 114   2.0000      -0.547957       -14.9107
 115   2.0000      -0.546617       -14.8742
 116   2.0000      -0.542944       -14.7743
 117   2.0000      -0.541778       -14.7425
 118   2.0000      -0.541253       -14.7282
 119   2.0000      -0.534057       -14.5324
 120   2.0000      -0.529929       -14.4201
 121   2.0000      -0.525023       -14.2866
 122   2.0000      -0.524551       -14.2738
 123   2.0000      -0.522283       -14.2120
 124   2.0000      -0.519654       -14.1405
 125   2.0000      -0.516230       -14.0473
 126   2.0000      -0.514390       -13.9973
 127   2.0000      -0.510953       -13.9037
 128   2.0000      -0.506786       -13.7903
 129   2.0000      -0.505570       -13.7573
 130   2.0000      -0.503864       -13.7108
 131   2.0000      -0.498755       -13.5718
 132   2.0000      -0.496032       -13.4977
 133   2.0000      -0.492224       -13.3941
 134   2.0000      -0.490556       -13.3487
 135   2.0000      -0.487250       -13.2588
 136   2.0000      -0.484873       -13.1941
 137   2.0000      -0.484443       -13.1824
 138   2.0000      -0.482043       -13.1171
 139   2.0000      -0.480002       -13.0615
 140   2.0000      -0.479278       -13.0418
 141   2.0000      -0.473391       -12.8816
 142   2.0000      -0.468780       -12.7561
 143   2.0000      -0.465489       -12.6666
 144   2.0000      -0.464599       -12.6424
 145   2.0000      -0.461787       -12.5659
 146   2.0000      -0.460151       -12.5213
 147   2.0000      -0.455697       -12.4001
 148   2.0000      -0.451544       -12.2871
 149   2.0000      -0.450956       -12.2711
 150   2.0000      -0.448103       -12.1935
 151   2.0000      -0.446603       -12.1527
 152   2.0000      -0.442693       -12.0463
 153   2.0000      -0.439670       -11.9640
 154   2.0000      -0.435662       -11.8550
 155   2.0000      -0.433534       -11.7971
 156   2.0000      -0.431357       -11.7378
 157   2.0000      -0.429026       -11.6744
 158   2.0000      -0.426643       -11.6095
 159   2.0000      -0.422308       -11.4916
 160   2.0000      -0.417321       -11.3559
 161   2.0000      -0.398455       -10.8425
 162   2.0000      -0.373694       -10.1687
 163   2.0000      -0.365893        -9.9565
 164   2.0000      -0.363203        -9.8832
 165   2.0000      -0.357302        -9.7227
 166   2.0000      -0.352370        -9.5885
 167   2.0000      -0.351561        -9.5665
 168   2.0000      -0.342307        -9.3147
 169   2.0000      -0.339055        -9.2262
 170   2.0000      -0.336243        -9.1497
 171   2.0000      -0.329002        -8.9526
 172   2.0000      -0.323006        -8.7894
 173   2.0000      -0.316085        -8.6011
 174   2.0000      -0.308114        -8.3842
 175   2.0000      -0.306004        -8.3268
 176   2.0000      -0.265906        -7.2357
 177   2.0000      -0.245635        -6.6841
 178   0.0000      -0.074508        -2.0275
 179   0.0000      -0.054331        -1.4784
 180   0.0000      -0.031667        -0.8617
 181   0.0000      -0.020214        -0.5501
 182   0.0000      -0.001099        -0.0299

MULLIKEN ATOMIC CHARGES
-----------------------
   0 C :    0.036496
   1 N :   -0.257751
   2 C :    0.108059
   3 C :   -0.001223
   4 C :    0.176655
   5 O :   -0.218380
   6 C :   -0.104572
   7 C :    0.008096
   8 C :    0.162928
   9 O :   -0.185835
  10 N :   -0.269862
  11 C :    0.093881
  12 C :    0.002094
  13 C :    0.148065
  14 C :   -0.019991
  15 C :    0.083919
  16 C :   -0.112603
  17 C :    0.079425
  18 O :   -0.112375
  19 C :    0.107066
  20 O :   -0.112537
  21 C :   -0.057689
  22 C :   -0.111355
  23 C :    0.102330
  24 O :   -0.122592
  25 C :    0.112162
  26 O :   -0.102682
  27 C :   -0.025307
  28 C :   -0.134183
  29 C :    0.114841
  30 O :   -0.094006
  31 C :    0.125701
  32 O :   -0.094488
  33 C :   -0.124633
  34 C :    0.099529
  35 N :   -0.251218
  36 C :    0.086681
  37 C :   -0.004282
  38 C :    0.167269
  39 O :   -0.188280
  40 C :   -0.064464
  41 C :   -0.062828
  42 C :    0.196228
  43 O :   -0.264355
  44 N :   -0.248357
  45 C :    0.093351
  46 C :    0.002801
  47 C :    0.113743
  48 C :   -0.035379
  49 C :    0.016232
  50 H :    0.012956
  51 H :    0.042218
  52 H :    0.018954
  53 H :    0.031955
  54 H :    0.022135
  55 H :    0.014538
  56 H :    0.024457
  57 H :    0.044077
  58 H :    0.017910
  59 H :    0.022889
  60 H :    0.030205
  61 H :   -0.023598
  62 H :    0.023739
  63 H :    0.073061
  64 H :    0.079900
  65 H :    0.109221
  66 H :    0.041300
  67 H :    0.116506
  68 H :    0.031194
  69 H :    0.049913
  70 H :    0.032564
  71 H :    0.033530
  72 H :    0.028242
  73 H :    0.026504
  74 H :    0.030313
  75 H :    0.046356
  76 H :    0.018405
  77 H :    0.029802
  78 H :    0.034543
  79 H :   -0.013644
  80 H :    0.057844
  81 H :    0.035688
Sum of atomic charges:   -0.0000000

LOEWDIN ATOMIC CHARGES
----------------------
   0 C :    0.088047
   1 N :    0.000019
   2 C :    0.037932
   3 C :   -0.061038
   4 C :    0.078463
   5 O :   -0.209051
   6 C :   -0.134283
   7 C :   -0.127481
   8 C :    0.083130
   9 O :   -0.189844
  10 N :   -0.008118
  11 C :    0.034758
  12 C :   -0.061654
  13 C :    0.088872
  14 C :   -0.047152
  15 C :    0.048038
  16 C :   -0.090115
  17 C :    0.090224
  18 O :   -0.093589
  19 C :    0.095959
  20 O :   -0.093864
  21 C :   -0.070281
  22 C :   -0.073552
  23 C :    0.093025
  24 O :   -0.095873
  25 C :    0.092502
  26 O :   -0.084395
  27 C :   -0.059964
  28 C :   -0.093651
  29 C :    0.097643
  30 O :   -0.084466
  31 C :    0.100403
  32 O :   -0.086855
  33 C :   -0.085968
  34 C :    0.099028
  35 N :    0.008488
  36 C :    0.034994
  37 C :   -0.061167
  38 C :    0.087327
  39 O :   -0.181752
  40 C :   -0.122377
  41 C :   -0.144833
  42 C :    0.095984
  43 O :   -0.224164
  44 N :    0.011475
  45 C :    0.037670
  46 C :   -0.059657
  47 C :    0.084936
  48 C :   -0.054678
  49 C :    0.030851
  50 H :    0.031941
  51 H :    0.036131
  52 H :    0.024547
  53 H :    0.032083
  54 H :    0.029463
  55 H :    0.022324
  56 H :    0.022563
  57 H :    0.037651
  58 H :    0.022774
  59 H :    0.030316
  60 H :    0.032388
  61 H :    0.030115
  62 H :    0.034497
  63 H :    0.066608
  64 H :    0.065186
  65 H :    0.073407
  66 H :    0.049952
  67 H :    0.074270
  68 H :    0.055016
  69 H :    0.040049
  70 H :    0.025104
  71 H :    0.034065
  72 H :    0.033201
  73 H :    0.024064
  74 H :    0.025866
  75 H :    0.038223
  76 H :    0.023418
  77 H :    0.033657
  78 H :    0.034039
  79 H :    0.031547
  80 H :    0.033431
  81 H :    0.032157

  Mayer bond orders larger than 0.100000
B(  0-C ,  1-N ) :   1.1839 B(  0-C ,  7-C ) :   1.4662 B(  0-C , 50-H ) :   0.9905
B(  1-N ,  2-C ) :   0.9446 B(  1-N ,  4-C ) :   1.0596 B(  2-C ,  3-C ) :   1.1194
B(  2-C , 51-H ) :   0.9347 B(  2-C , 52-H ) :   0.9540 B(  3-C , 53-H ) :   0.9674
B(  3-C , 54-H ) :   0.9686 B(  3-C , 55-H ) :   0.9688 B(  4-C ,  5-O ) :   2.0181
B(  4-C ,  6-C ) :   1.0020 B(  5-O , 62-H ) :   0.1119 B(  6-C ,  7-C ) :   1.1950
B(  6-C , 13-C ) :   1.4068 B(  7-C ,  8-C ) :   0.9501 B(  8-C ,  9-O ) :   2.1751
B(  8-C , 10-N ) :   1.0141 B( 10-N , 11-C ) :   0.9480 B( 10-N , 13-C ) :   1.1631
B( 11-C , 12-C ) :   1.1200 B( 11-C , 56-H ) :   0.9504 B( 11-C , 57-H ) :   0.9277
B( 12-C , 58-H ) :   0.9685 B( 12-C , 59-H ) :   0.9675 B( 12-C , 60-H ) :   0.9640
B( 13-C , 14-C ) :   1.1020 B( 14-C , 15-C ) :   1.7530 B( 14-C , 61-H ) :   0.9710
B( 15-C , 16-C ) :   1.0004 B( 15-C , 62-H ) :   0.9439 B( 16-C , 17-C ) :   0.8908
B( 16-C , 19-C ) :   0.8947 B( 16-C , 21-C ) :  -0.1049 B( 16-C , 63-H ) :   0.8628
B( 17-C , 18-O ) :   2.2919 B( 17-C , 21-C ) :   0.9244 B( 19-C , 20-O ) :   2.3013
B( 19-C , 21-C ) :   0.9156 B( 21-C , 22-C ) :   1.0360 B( 21-C , 64-H ) :   0.8755
B( 22-C , 23-C ) :   0.9210 B( 22-C , 25-C ) :   0.8894 B( 22-C , 27-C ) :  -0.1009
B( 22-C , 65-H ) :   0.8683 B( 23-C , 24-O ) :   2.2333 B( 23-C , 27-C ) :   0.9172
B( 25-C , 26-O ) :   2.3126 B( 25-C , 27-C ) :   0.8903 B( 27-C , 28-C ) :   0.9969
B( 27-C , 66-H ) :   0.9236 B( 28-C , 29-C ) :   0.9087 B( 28-C , 31-C ) :   0.9283
B( 28-C , 67-H ) :   0.7593 B( 29-C , 30-O ) :   2.3268 B( 29-C , 33-C ) :   0.8753
B( 31-C , 32-O ) :   2.3219 B( 31-C , 33-C ) :   0.8692 B( 33-C , 34-C ) :   1.0656
B( 33-C , 68-H ) :   0.8562 B( 34-C , 35-N ) :   1.2311 B( 34-C , 41-C ) :   1.3861
B( 35-N , 36-C ) :   0.9372 B( 35-N , 38-C ) :   1.0185 B( 36-C , 37-C ) :   1.1167
B( 36-C , 69-H ) :   0.9267 B( 36-C , 70-H ) :   0.9500 B( 37-C , 71-H ) :   0.9628
B( 37-C , 72-H ) :   0.9671 B( 37-C , 73-H ) :   0.9667 B( 38-C , 39-O ) :   2.0691
B( 38-C , 40-C ) :   0.9906 B( 40-C , 41-C ) :   1.2080 B( 40-C , 47-C ) :   1.4139
B( 41-C , 42-C ) :   0.9904 B( 42-C , 43-O ) :   1.8675 B( 42-C , 44-N ) :   1.1223
B( 43-O , 67-H ) :   0.1922 B( 44-N , 45-C ) :   0.9375 B( 44-N , 47-C ) :   1.1398
B( 45-C , 46-C ) :   1.1208 B( 45-C , 74-H ) :   0.9498 B( 45-C , 75-H ) :   0.9300
B( 46-C , 76-H ) :   0.9688 B( 46-C , 77-H ) :   0.9682 B( 46-C , 78-H ) :   0.9633
B( 47-C , 48-C ) :   1.1264 B( 48-C , 49-C ) :   1.8914 B( 48-C , 79-H ) :   0.9528
B( 49-C , 80-H ) :   0.9295 B( 49-C , 81-H ) :   0.9444

-----------------------------------------------------------------------------
         ABSORPTION SPECTRUM VIA TRANSITION ELECTRIC DIPOLE MOMENTS
-----------------------------------------------------------------------------
State   Energy  Wavelength   fosc         T2         TX        TY        TZ
        (cm-1)    (nm)                  (au**2)     (au)      (au)      (au)
-----------------------------------------------------------------------------
   0   24153.8    414.0   0.286012056   3.89829   1.00083   1.66404   0.35724
   1   24381.8    410.1   0.276309126   3.73082   1.85203   0.40375  -0.37123
   2   29275.4    341.6   0.000056400   0.00063   0.00399   0.02230   0.01100
   3   29967.4    333.7   0.001007995   0.01107  -0.01442   0.07231   0.07508
   4   29974.4    333.6   0.001243710   0.01366  -0.02241  -0.11305  -0.01945
   5   29983.5    333.5   0.004092784   0.04494  -0.19089  -0.06666   0.06368
   6   30958.8    323.0   0.005228848   0.05560   0.01888   0.08950   0.21734
   7   31724.4    315.2   0.001220442   0.01266   0.06685   0.07884   0.04450
   8   32198.8    310.6   0.002575186   0.02633  -0.00045  -0.06229  -0.14983
   9   33192.4    301.3   0.001845469   0.01830  -0.10680   0.03648  -0.07460
  10   34593.0    289.1   0.127308987   1.21156  -0.82398   0.65843  -0.31479
  11   34897.6    286.6   0.000577084   0.00544   0.05539  -0.00741   0.04818
  12   35521.7    281.5   0.036981712   0.34274  -0.28243   0.20470  -0.47018
  13   35855.5    278.9   0.234927762   2.15702   0.72540  -0.51670   1.16783
  14   36101.4    277.0   0.012313813   0.11229  -0.09046   0.04148  -0.31998
  15   36429.8    274.5   0.010291817   0.09301   0.20033  -0.22950  -0.01422
  16   36811.7    271.7   0.000106016   0.00095  -0.01502   0.01529   0.02211
  17   37409.5    267.3   0.000793363   0.00698  -0.04699   0.00970  -0.06841
  18   38408.5    260.4   0.001781613   0.01527  -0.03683  -0.01993  -0.11626
  19   38787.5    257.8   0.016969694   0.14403  -0.17415   0.33614   0.02672
  20   39270.4    254.6   0.009226893   0.07735  -0.25173  -0.04730  -0.10838
  21   39516.7    253.1   0.091709181   0.76403   0.19843   0.40851  -0.74684
  22   40280.2    248.3   0.003344935   0.02734  -0.02115  -0.09050   0.13675

FINAL SINGLE POINT ENERGY     -2359.384454587270

DIPOLE MOMENT
-------------
                                X             Y             Z
Electronic contribution:     -5.89183     -11.81280     -10.00374
Nuclear contribution   :      4.80649      13.65272       9.51513
                        -----------------------------------------
Total Dipole Moment    :     -1.08534       1.83992      -0.48861
                        -----------------------------------------
Magnitude (a.u.)       :      2.19135
Magnitude (Debye)      :      5.56996

Rotational constants in cm-1:     0.004165     0.000661     0.000632
Rotational constants in MHz :   124.862771    19.827333    18.935959

                             ****ORCA TERMINATED NORMALLY****
TOTAL RUN TIME: 0 days 0 hours 5 minutes 34 seconds 793 msec
