                         Program Version 4.2.0 -  RELEASE  -
|  1> # ORCA input file
|  2> # SCF done       -182.589412693119          0.000735096789
|  3> ! CAM-B3LYP def2-SVP def2/J RIJCOSX Grid4 TightSCF
|  4> %maxcore 5000
|  5> %tddft
|  6>     Mode sTDDFT
|  7>     Ethresh 5.0
|  8>     maxcore 5000
|  9> end
| 10>
| 11> %pal
| 12>   nprocs 6
| 13>   end
| 14> * xyz 0 1
| 15>    C        1.16955         4.51135        -9.18131
| 16>    N        0.33789         4.26461        -8.13338
| 17>    C       -0.09639         2.96425        -7.68833
| 18>    C       -1.14777         2.37231        -8.62334
| 19>    C       -0.12211         5.46280        -7.54727
| 20>    O       -0.87538         5.49269        -6.59121
| 21>    C        0.50817         6.49923        -8.32660
| 22>    C        1.30594         5.86154        -9.33336
| 23>    C        1.94200         6.89757       -10.11970
| 24>    O        2.70179         6.86249       -11.06153
| 25>    N        1.48684         8.09713        -9.53363
| 26>    C        1.87131         9.37690       -10.07534
| 27>    C        0.77858         9.97241       -10.96074
| 28>    C        0.63387         7.87085        -8.47511
| 29>    C        0.03548         8.91660        -7.71324
| 30>    C       -0.77055         8.66738        -6.65849
| 31>    C       -1.41439         9.65894        -5.83440
| 32>    C       -2.01226         9.25007        -4.63819
| 33>    C       -2.63355        10.16133        -3.80609
| 34>    N       -3.32974         9.62347        -2.66080
| 35>    O       -4.45768        10.01486        -2.45498
| 36>    O       -2.75374         8.78097        -2.00714
| 37>    C       -2.67309        11.53292        -4.10861
| 38>    C       -2.12003        11.91963        -5.33673
| 39>    C       -1.50572        11.01748        -6.17254
| 40>    C       -3.18515        12.54400        -3.21414
| 41>    C       -3.09519        12.51561        -1.87153
| 42>    C       -3.57710        13.54578        -1.01415
| 43>    C       -3.43871        13.61394         0.35245
| 44>    C       -4.00576        14.75926         0.93652
| 45>    C       -3.89352        15.06923         2.36364
| 46>    C       -3.49832        16.33119         2.77393
| 47>    C       -3.45740        16.64279         4.13309
| 48>    C       -3.76227        15.66966         5.06859
| 49>    C       -4.12282        14.38578         4.65471
| 50>    C       -4.19150        14.08412         3.30284
| 51>    O       -4.38377        13.51064         5.65915
| 52>    C       -4.84983        12.22479         5.32762
| 53>    O       -3.12934        17.93108         4.43118
| 54>    C       -3.16752        18.33060         5.78205
| 55>    C       -4.62269        15.57026        -0.00455
| 56>    S       -4.45187        14.92625        -1.61094
| 57>    C       -5.35767        16.78027         0.16817
| 58>    S       -5.48335        17.93543        -1.12965
| 59>    C       -6.42738        19.04848        -0.19104
| 60>    C       -6.62583        18.51948         1.06861
| 61>    C       -6.05013        17.24881         1.26450
| 62>    O       -6.22499        16.55436         2.43013
| 63>    C       -6.82673        17.14371         3.47488
| 64>    O       -6.94329        16.56020         4.51534
| 65>    C       -7.37988        18.56419         3.29879
| 66>    O       -7.89829        19.14954         4.20616
| 67>    O       -7.29959        19.14630         2.08597
| 68>    C       -6.90677        20.28999        -0.75104
| 69>    C       -6.56400        20.62649        -2.07561
| 70>    O       -5.73863        19.74863        -2.73872
| 71>    C       -4.47732        20.24534        -3.17249
| 72>    C       -3.62980        20.79173        -2.03066
| 73>    C       -7.07691        21.78594        -2.66875
| 74>    C       -7.84661        22.64795        -1.88716
| 75>    C       -8.15882        22.34085        -0.57678
| 76>    C       -7.71644        21.16010        -0.01594
| 77>    C       -6.90904        22.11948        -4.08514
| 78>    C       -6.89215        21.23788        -5.07594
| 79>    H        1.61005         3.70558        -9.73886
| 80>    H       -0.52138         3.10524        -6.69080
| 81>    H        0.77031         2.30002        -7.61959
| 82>    H       -2.01370         3.02775        -8.67399
| 83>    H       -1.46684         1.40210        -8.25329
| 84>    H       -0.74503         2.24904        -9.62642
| 85>    H        2.76616         9.19187       -10.67659
| 86>    H        2.13105        10.05930        -9.26069
| 87>    H        0.57103         9.30169       -11.79063
| 88>    H        1.10678        10.92812       -11.36035
| 89>    H       -0.14216        10.12218       -10.40083
| 90>    H        0.26666         9.93092        -8.00350
| 91>    H       -0.94952         7.63824        -6.37654
| 92>    H       -2.00281         8.20570        -4.36157
| 93>    H       -2.16174        12.96321        -5.61132
| 94>    H       -1.09706        11.36565        -7.10834
| 95>    H       -3.60377        13.42393        -3.68570
| 96>    H       -2.60822        11.69413        -1.36166
| 97>    H       -2.91331        12.86765         0.92155
| 98>    H       -3.24014        17.09514         2.05712
| 99>    H       -3.75321        15.86238         6.12758
|100>    H       -4.50807        13.11379         2.95710
|101>    H       -5.02835        11.72279         6.27720
|102>    H       -4.10518        11.66083         4.75609
|103>    H       -5.78523        12.27230         4.76203
|104>    H       -2.92153        19.39140         5.78171
|105>    H       -2.43004        17.78752         6.38089
|106>    H       -4.16416        18.18713         6.21043
|107>    H       -4.62112        21.01910        -3.93479
|108>    H       -3.99554        19.37777        -3.62818
|109>    H       -2.67311        21.12739        -2.42013
|110>    H       -3.45580        20.02191        -1.28338
|111>    H       -4.12911        21.63425        -1.55596
|112>    H       -8.22466        23.55558        -2.33436
|113>    H       -8.76384        23.01727         0.00687
|114>    H       -7.98616        20.91280         0.99590
|115>    H       -6.88417        23.18025        -4.30414
|116>    H       -6.95444        20.17784        -4.89575
|117>    H       -6.82281        21.54909        -6.10427
|118> *
|119>
|120>                          ****END OF INPUT****

CARTESIAN COORDINATES (ANGSTROEM)
---------------------------------
  C      1.169550    4.511350   -9.181310
  N      0.337890    4.264610   -8.133380
  C     -0.096390    2.964250   -7.688330
  C     -1.147770    2.372310   -8.623340
  C     -0.122110    5.462800   -7.547270
  O     -0.875380    5.492690   -6.591210
  C      0.508170    6.499230   -8.326600
  C      1.305940    5.861540   -9.333360
  C      1.942000    6.897570  -10.119700
  O      2.701790    6.862490  -11.061530
  N      1.486840    8.097130   -9.533630
  C      1.871310    9.376900  -10.075340
  C      0.778580    9.972410  -10.960740
  C      0.633870    7.870850   -8.475110
  C      0.035480    8.916600   -7.713240
  C     -0.770550    8.667380   -6.658490
  C     -1.414390    9.658940   -5.834400
  C     -2.012260    9.250070   -4.638190
  C     -2.633550   10.161330   -3.806090
  N     -3.329740    9.623470   -2.660800
  O     -4.457680   10.014860   -2.454980
  O     -2.753740    8.780970   -2.007140
  C     -2.673090   11.532920   -4.108610
  C     -2.120030   11.919630   -5.336730
  C     -1.505720   11.017480   -6.172540
  C     -3.185150   12.544000   -3.214140
  C     -3.095190   12.515610   -1.871530
  C     -3.577100   13.545780   -1.014150
  C     -3.438710   13.613940    0.352450
  C     -4.005760   14.759260    0.936520
  C     -3.893520   15.069230    2.363640
  C     -3.498320   16.331190    2.773930
  C     -3.457400   16.642790    4.133090
  C     -3.762270   15.669660    5.068590
  C     -4.122820   14.385780    4.654710
  C     -4.191500   14.084120    3.302840
  O     -4.383770   13.510640    5.659150
  C     -4.849830   12.224790    5.327620
  O     -3.129340   17.931080    4.431180
  C     -3.167520   18.330600    5.782050
  C     -4.622690   15.570260   -0.004550
  S     -4.451870   14.926250   -1.610940
  C     -5.357670   16.780270    0.168170
  S     -5.483350   17.935430   -1.129650
  C     -6.427380   19.048480   -0.191040
  C     -6.625830   18.519480    1.068610
  C     -6.050130   17.248810    1.264500
  O     -6.224990   16.554360    2.430130
  C     -6.826730   17.143710    3.474880
  O     -6.943290   16.560200    4.515340
  C     -7.379880   18.564190    3.298790
  O     -7.898290   19.149540    4.206160
  O     -7.299590   19.146300    2.085970
  C     -6.906770   20.289990   -0.751040
  C     -6.564000   20.626490   -2.075610
  O     -5.738630   19.748630   -2.738720
  C     -4.477320   20.245340   -3.172490
  C     -3.629800   20.791730   -2.030660
  C     -7.076910   21.785940   -2.668750
  C     -7.846610   22.647950   -1.887160
  C     -8.158820   22.340850   -0.576780
  C     -7.716440   21.160100   -0.015940
  C     -6.909040   22.119480   -4.085140
  C     -6.892150   21.237880   -5.075940
  H      1.610050    3.705580   -9.738860
  H     -0.521380    3.105240   -6.690800
  H      0.770310    2.300020   -7.619590
  H     -2.013700    3.027750   -8.673990
  H     -1.466840    1.402100   -8.253290
  H     -0.745030    2.249040   -9.626420
  H      2.766160    9.191870  -10.676590
  H      2.131050   10.059300   -9.260690
  H      0.571030    9.301690  -11.790630
  H      1.106780   10.928120  -11.360350
  H     -0.142160   10.122180  -10.400830
  H      0.266660    9.930920   -8.003500
  H     -0.949520    7.638240   -6.376540
  H     -2.002810    8.205700   -4.361570
  H     -2.161740   12.963210   -5.611320
  H     -1.097060   11.365650   -7.108340
  H     -3.603770   13.423930   -3.685700
  H     -2.608220   11.694130   -1.361660
  H     -2.913310   12.867650    0.921550
  H     -3.240140   17.095140    2.057120
  H     -3.753210   15.862380    6.127580
  H     -4.508070   13.113790    2.957100
  H     -5.028350   11.722790    6.277200
  H     -4.105180   11.660830    4.756090
  H     -5.785230   12.272300    4.762030
  H     -2.921530   19.391400    5.781710
  H     -2.430040   17.787520    6.380890
  H     -4.164160   18.187130    6.210430
  H     -4.621120   21.019100   -3.934790
  H     -3.995540   19.377770   -3.628180
  H     -2.673110   21.127390   -2.420130
  H     -3.455800   20.021910   -1.283380
  H     -4.129110   21.634250   -1.555960
  H     -8.224660   23.555580   -2.334360
  H     -8.763840   23.017270    0.006870
  H     -7.986160   20.912800    0.995900
  H     -6.884170   23.180250   -4.304140
  H     -6.954440   20.177840   -4.895750
  H     -6.822810   21.549090   -6.104270

 Total Charge           Charge          ....    0
 Multiplicity           Mult            ....    1
 Number of Electrons    NEL             ....  468
 Basis Dimension        Dim             .... 1099

ORBITAL ENERGIES
----------------

  NO   OCC          E(Eh)            E(eV)
   0   2.0000     -88.966140     -2420.8917
   1   2.0000     -88.955975     -2420.6151
   2   2.0000     -19.304896      -525.3129
   3   2.0000     -19.299186      -525.1575
   4   2.0000     -19.249110      -523.7949
   5   2.0000     -19.242119      -523.6047
   6   2.0000     -19.240721      -523.5666
   7   2.0000     -19.232905      -523.3540
   8   2.0000     -19.231518      -523.3162
   9   2.0000     -19.230308      -523.2833
  10   2.0000     -19.227927      -523.2185
  11   2.0000     -19.186393      -522.0883
  12   2.0000     -19.183908      -522.0207
  13   2.0000     -14.645130      -398.5142
  14   2.0000     -14.450281      -393.2121
  15   2.0000     -14.449007      -393.1775
  16   2.0000     -10.433291      -283.9043
  17   2.0000     -10.430245      -283.8214
  18   2.0000     -10.369870      -282.1785
  19   2.0000     -10.368554      -282.1427
  20   2.0000     -10.355210      -281.7796
  21   2.0000     -10.352672      -281.7105
  22   2.0000     -10.339496      -281.3520
  23   2.0000     -10.335915      -281.2546
  24   2.0000     -10.329584      -281.0823
  25   2.0000     -10.325631      -280.9747
  26   2.0000     -10.323149      -280.9072
  27   2.0000     -10.319132      -280.7978
  28   2.0000     -10.318455      -280.7794
  29   2.0000     -10.315583      -280.7013
  30   2.0000     -10.310876      -280.5732
  31   2.0000     -10.310851      -280.5725
  32   2.0000     -10.310418      -280.5607
  33   2.0000     -10.310099      -280.5521
  34   2.0000     -10.309856      -280.5454
  35   2.0000     -10.307615      -280.4845
  36   2.0000     -10.306310      -280.4489
  37   2.0000     -10.302240      -280.3382
  38   2.0000     -10.298178      -280.2277
  39   2.0000     -10.297834      -280.2183
  40   2.0000     -10.295331      -280.1502
  41   2.0000     -10.293302      -280.0950
  42   2.0000     -10.292502      -280.0732
  43   2.0000     -10.292122      -280.0629
  44   2.0000     -10.292063      -280.0613
  45   2.0000     -10.290237      -280.0116
  46   2.0000     -10.283597      -279.8309
  47   2.0000     -10.283540      -279.8294
  48   2.0000     -10.281591      -279.7763
  49   2.0000     -10.279032      -279.7067
  50   2.0000     -10.275694      -279.6159
  51   2.0000     -10.275499      -279.6105
  52   2.0000     -10.273221      -279.5486
  53   2.0000     -10.271852      -279.5113
  54   2.0000     -10.270740      -279.4810
  55   2.0000     -10.267185      -279.3843
  56   2.0000     -10.264995      -279.3247
  57   2.0000     -10.263032      -279.2713
  58   2.0000     -10.261241      -279.2226
  59   2.0000     -10.256063      -279.0817
  60   2.0000     -10.254472      -279.0384
  61   2.0000     -10.248933      -278.8876
  62   2.0000     -10.247755      -278.8556
  63   2.0000     -10.245807      -278.8026
  64   2.0000      -8.059158      -219.3008
  65   2.0000      -8.051751      -219.0993
  66   2.0000      -6.028807      -164.0522
  67   2.0000      -6.024458      -163.9338
  68   2.0000      -6.021014      -163.8401
  69   2.0000      -6.020918      -163.8375
  70   2.0000      -6.016996      -163.7308
  71   2.0000      -6.013740      -163.6422
  72   2.0000      -1.322010       -35.9737
  73   2.0000      -1.246582       -33.9212
  74   2.0000      -1.211697       -32.9720
  75   2.0000      -1.153983       -31.4015
  76   2.0000      -1.148101       -31.2414
  77   2.0000      -1.140615       -31.0377
  78   2.0000      -1.136777       -30.9333
  79   2.0000      -1.134638       -30.8751
  80   2.0000      -1.128245       -30.7011
  81   2.0000      -1.121609       -30.5205
  82   2.0000      -1.120344       -30.4861
  83   2.0000      -1.058994       -28.8167
  84   2.0000      -1.050587       -28.5879
  85   2.0000      -1.003939       -27.3186
  86   2.0000      -0.990513       -26.9532
  87   2.0000      -0.983006       -26.7489
  88   2.0000      -0.957004       -26.0414
  89   2.0000      -0.935964       -25.4689
  90   2.0000      -0.928896       -25.2765
  91   2.0000      -0.922041       -25.0900
  92   2.0000      -0.904864       -24.6226
  93   2.0000      -0.895720       -24.3738
  94   2.0000      -0.890425       -24.2297
  95   2.0000      -0.875401       -23.8209
  96   2.0000      -0.869551       -23.6617
  97   2.0000      -0.864885       -23.5347
  98   2.0000      -0.864220       -23.5166
  99   2.0000      -0.851114       -23.1600
 100   2.0000      -0.846462       -23.0334
 101   2.0000      -0.835352       -22.7311
 102   2.0000      -0.828959       -22.5571
 103   2.0000      -0.818457       -22.2713
 104   2.0000      -0.813413       -22.1341
 105   2.0000      -0.811071       -22.0704
 106   2.0000      -0.805745       -21.9254
 107   2.0000      -0.799333       -21.7510
 108   2.0000      -0.789251       -21.4766
 109   2.0000      -0.783865       -21.3300
 110   2.0000      -0.774192       -21.0668
 111   2.0000      -0.771489       -20.9933
 112   2.0000      -0.762747       -20.7554
 113   2.0000      -0.759311       -20.6619
 114   2.0000      -0.747374       -20.3371
 115   2.0000      -0.737847       -20.0778
 116   2.0000      -0.726313       -19.7640
 117   2.0000      -0.713946       -19.4275
 118   2.0000      -0.710596       -19.3363
 119   2.0000      -0.707741       -19.2586
 120   2.0000      -0.706714       -19.2307
 121   2.0000      -0.696356       -18.9488
 122   2.0000      -0.691997       -18.8302
 123   2.0000      -0.679874       -18.5003
 124   2.0000      -0.673897       -18.3377
 125   2.0000      -0.663042       -18.0423
 126   2.0000      -0.659323       -17.9411
 127   2.0000      -0.649798       -17.6819
 128   2.0000      -0.643026       -17.4976
 129   2.0000      -0.642124       -17.4731
 130   2.0000      -0.640888       -17.4394
 131   2.0000      -0.632408       -17.2087
 132   2.0000      -0.624212       -16.9857
 133   2.0000      -0.616210       -16.7679
 134   2.0000      -0.608554       -16.5596
 135   2.0000      -0.607371       -16.5274
 136   2.0000      -0.603508       -16.4223
 137   2.0000      -0.599202       -16.3051
 138   2.0000      -0.595360       -16.2006
 139   2.0000      -0.590948       -16.0805
 140   2.0000      -0.587676       -15.9915
 141   2.0000      -0.586356       -15.9556
 142   2.0000      -0.580303       -15.7909
 143   2.0000      -0.578638       -15.7456
 144   2.0000      -0.576218       -15.6797
 145   2.0000      -0.575567       -15.6620
 146   2.0000      -0.566425       -15.4132
 147   2.0000      -0.564324       -15.3560
 148   2.0000      -0.557523       -15.1710
 149   2.0000      -0.556625       -15.1465
 150   2.0000      -0.554661       -15.0931
 151   2.0000      -0.553759       -15.0685
 152   2.0000      -0.548939       -14.9374
 153   2.0000      -0.545891       -14.8544
 154   2.0000      -0.544760       -14.8237
 155   2.0000      -0.543121       -14.7791
 156   2.0000      -0.541983       -14.7481
 157   2.0000      -0.537763       -14.6333
 158   2.0000      -0.536933       -14.6107
 159   2.0000      -0.535046       -14.5594
 160   2.0000      -0.532001       -14.4765
 161   2.0000      -0.528796       -14.3893
 162   2.0000      -0.528509       -14.3815
 163   2.0000      -0.526943       -14.3388
 164   2.0000      -0.523520       -14.2457
 165   2.0000      -0.521591       -14.1932
 166   2.0000      -0.513893       -13.9837
 167   2.0000      -0.512661       -13.9502
 168   2.0000      -0.511244       -13.9117
 169   2.0000      -0.507703       -13.8153
 170   2.0000      -0.504433       -13.7263
 171   2.0000      -0.501127       -13.6363
 172   2.0000      -0.499644       -13.5960
 173   2.0000      -0.495494       -13.4831
 174   2.0000      -0.491675       -13.3792
 175   2.0000      -0.489135       -13.3100
 176   2.0000      -0.483674       -13.1614
 177   2.0000      -0.482298       -13.1240
 178   2.0000      -0.477886       -13.0039
 179   2.0000      -0.474773       -12.9192
 180   2.0000      -0.472363       -12.8537
 181   2.0000      -0.470173       -12.7941
 182   2.0000      -0.469762       -12.7829
 183   2.0000      -0.466548       -12.6954
 184   2.0000      -0.463768       -12.6198
 185   2.0000      -0.461868       -12.5681
 186   2.0000      -0.459636       -12.5073
 187   2.0000      -0.456484       -12.4216
 188   2.0000      -0.454125       -12.3574
 189   2.0000      -0.453643       -12.3442
 190   2.0000      -0.450310       -12.2536
 191   2.0000      -0.448338       -12.1999
 192   2.0000      -0.446065       -12.1380
 193   2.0000      -0.442728       -12.0472
 194   2.0000      -0.440459       -11.9855
 195   2.0000      -0.439590       -11.9618
 196   2.0000      -0.437827       -11.9139
 197   2.0000      -0.435745       -11.8572
 198   2.0000      -0.434162       -11.8142
 199   2.0000      -0.430011       -11.7012
 200   2.0000      -0.429195       -11.6790
 201   2.0000      -0.427501       -11.6329
 202   2.0000      -0.426048       -11.5934
 203   2.0000      -0.424680       -11.5561
 204   2.0000      -0.415595       -11.3089
 205   2.0000      -0.409407       -11.1405
 206   2.0000      -0.407395       -11.0858
 207   2.0000      -0.405919       -11.0456
 208   2.0000      -0.401324       -10.9206
 209   2.0000      -0.398503       -10.8438
 210   2.0000      -0.391894       -10.6640
 211   2.0000      -0.391003       -10.6397
 212   2.0000      -0.386452       -10.5159
 213   2.0000      -0.383767       -10.4428
 214   2.0000      -0.379397       -10.3239
 215   2.0000      -0.373957       -10.1759
 216   2.0000      -0.372172       -10.1273
 217   2.0000      -0.369353       -10.0506
 218   2.0000      -0.358613        -9.7583
 219   2.0000      -0.354042        -9.6340
 220   2.0000      -0.342681        -9.3248
 221   2.0000      -0.342253        -9.3132
 222   2.0000      -0.339193        -9.2299
 223   2.0000      -0.326413        -8.8822
 224   2.0000      -0.322957        -8.7881
 225   2.0000      -0.319470        -8.6932
 226   2.0000      -0.310101        -8.4383
 227   2.0000      -0.308606        -8.3976
 228   2.0000      -0.296184        -8.0596
 229   2.0000      -0.289552        -7.8791
 230   2.0000      -0.283107        -7.7037
 231   2.0000      -0.268183        -7.2976
 232   2.0000      -0.250220        -6.8088
 233   2.0000      -0.239860        -6.5269
 234   0.0000      -0.076672        -2.0863
 235   0.0000      -0.048968        -1.3325
 236   0.0000      -0.037043        -1.0080
 237   0.0000      -0.029043        -0.7903
 238   0.0000      -0.009940        -0.2705

MULLIKEN ATOMIC CHARGES
-----------------------
   0 C :    0.037779
   1 N :   -0.256325
   2 C :    0.111386
   3 C :   -0.000160
   4 C :    0.174109
   5 O :   -0.218450
   6 C :   -0.107871
   7 C :    0.005791
   8 C :    0.160715
   9 O :   -0.187098
  10 N :   -0.271930
  11 C :    0.101490
  12 C :    0.004343
  13 C :    0.150573
  14 C :   -0.004106
  15 C :    0.010314
  16 C :    0.096065
  17 C :   -0.032879
  18 C :    0.100575
  19 N :    0.221001
  20 O :   -0.216495
  21 O :   -0.233592
  22 C :    0.107459
  23 C :   -0.026271
  24 C :    0.013646
  25 C :   -0.040539
  26 C :    0.060885
  27 C :   -0.046671
  28 C :   -0.036104
  29 C :    0.115790
  30 C :    0.060610
  31 C :   -0.063534
  32 C :    0.240652
  33 C :   -0.137856
  34 C :    0.263981
  35 C :   -0.136009
  36 O :   -0.309105
  37 C :    0.178532
  38 O :   -0.320184
  39 C :    0.173783
  40 C :   -0.108984
  41 S :    0.113884
  42 C :   -0.167618
  43 S :    0.169339
  44 C :   -0.156815
  45 C :    0.162440
  46 C :    0.182557
  47 O :   -0.186257
  48 C :    0.161319
  49 O :   -0.111920
  50 C :    0.150308
  51 O :   -0.109110
  52 O :   -0.213735
  53 C :    0.129401
  54 C :    0.062355
  55 O :   -0.367870
  56 C :    0.173421
  57 C :   -0.019485
  58 C :    0.062052
  59 C :   -0.026672
  60 C :    0.043077
  61 C :   -0.059848
  62 C :   -0.060165
  63 C :   -0.000070
  64 H :    0.013923
  65 H :    0.042452
  66 H :    0.019044
  67 H :    0.030104
  68 H :    0.022587
  69 H :    0.014174
  70 H :    0.043247
  71 H :    0.021023
  72 H :    0.031378
  73 H :    0.020718
  74 H :    0.010856
  75 H :   -0.033343
  76 H :    0.014560
  77 H :    0.011769
  78 H :   -0.017010
  79 H :   -0.016909
  80 H :    0.000593
  81 H :    0.003243
  82 H :   -0.015043
  83 H :   -0.032431
  84 H :   -0.034463
  85 H :   -0.044020
  86 H :    0.034094
  87 H :    0.019190
  88 H :    0.027136
  89 H :    0.032828
  90 H :    0.022592
  91 H :    0.031337
  92 H :    0.030194
  93 H :    0.019336
  94 H :    0.020823
  95 H :    0.029734
  96 H :    0.032819
  97 H :   -0.024088
  98 H :   -0.012270
  99 H :   -0.000759
 100 H :    0.002165
 101 H :    0.039124
 102 H :    0.023394
Sum of atomic charges:   -0.0000000

LOEWDIN ATOMIC CHARGES
----------------------
   0 C :    0.087463
   1 N :    0.001097
   2 C :    0.038266
   3 C :   -0.060353
   4 C :    0.076322
   5 O :   -0.208559
   6 C :   -0.134611
   7 C :   -0.127625
   8 C :    0.082098
   9 O :   -0.191173
  10 N :   -0.010048
  11 C :    0.035031
  12 C :   -0.061732
  13 C :    0.087300
  14 C :   -0.052165
  15 C :    0.040798
  16 C :   -0.032237
  17 C :    0.018628
  18 C :   -0.024850
  19 N :    0.279237
  20 O :   -0.190262
  21 O :   -0.201038
  22 C :   -0.000160
  23 C :   -0.009512
  24 C :    0.007498
  25 C :   -0.041429
  26 C :   -0.010072
  27 C :   -0.166817
  28 C :   -0.035755
  29 C :   -0.037961
  30 C :   -0.006407
  31 C :   -0.069565
  32 C :    0.057252
  33 C :   -0.092887
  34 C :    0.074438
  35 C :   -0.093536
  36 O :   -0.101087
  37 C :    0.076260
  38 O :   -0.110085
  39 C :    0.075462
  40 C :   -0.181502
  41 S :    0.429328
  42 C :   -0.217657
  43 S :    0.493908
  44 C :   -0.180114
  45 C :   -0.009821
  46 C :   -0.013809
  47 O :    0.000789
  48 C :    0.053040
  49 O :   -0.090644
  50 C :    0.055359
  51 O :   -0.092593
  52 O :   -0.021885
  53 C :   -0.053439
  54 C :    0.050799
  55 O :   -0.128197
  56 C :    0.079624
  57 C :   -0.073756
  58 C :   -0.048649
  59 C :   -0.010179
  60 C :   -0.026484
  61 C :   -0.008795
  62 C :   -0.024316
  63 C :   -0.031072
  64 H :    0.032150
  65 H :    0.036392
  66 H :    0.024579
  67 H :    0.031548
  68 H :    0.030065
  69 H :    0.022064
  70 H :    0.037937
  71 H :    0.021529
  72 H :    0.033060
  73 H :    0.029430
  74 H :    0.019856
  75 H :    0.024791
  76 H :    0.039134
  77 H :    0.046890
  78 H :    0.033814
  79 H :    0.030464
  80 H :    0.025077
  81 H :    0.034726
  82 H :    0.033408
  83 H :    0.026864
  84 H :    0.031348
  85 H :    0.023897
  86 H :    0.027714
  87 H :    0.013115
  88 H :    0.017296
  89 H :    0.026738
  90 H :    0.014868
  91 H :    0.018315
  92 H :    0.015307
  93 H :    0.022377
  94 H :    0.033113
  95 H :    0.022404
  96 H :    0.029744
  97 H :    0.028716
  98 H :    0.031687
  99 H :    0.031242
 100 H :    0.029732
 101 H :    0.026584
 102 H :    0.024869

  Mayer bond orders larger than 0.100000
B(  0-C ,  1-N ) :   1.1853 B(  0-C ,  7-C ) :   1.4636 B(  0-C , 64-H ) :   0.9903
B(  1-N ,  2-C ) :   0.9437 B(  1-N ,  4-C ) :   1.0631 B(  2-C ,  3-C ) :   1.1180
B(  2-C , 65-H ) :   0.9343 B(  2-C , 66-H ) :   0.9539 B(  3-C , 67-H ) :   0.9673
B(  3-C , 68-H ) :   0.9689 B(  3-C , 69-H ) :   0.9692 B(  4-C ,  5-O ) :   2.0092
B(  4-C ,  6-C ) :   1.0055 B(  5-O , 76-H ) :   0.1177 B(  6-C ,  7-C ) :   1.1977
B(  6-C , 13-C ) :   1.3943 B(  7-C ,  8-C ) :   0.9498 B(  8-C ,  9-O ) :   2.1742
B(  8-C , 10-N ) :   1.0172 B( 10-N , 11-C ) :   0.9498 B( 10-N , 13-C ) :   1.1547
B( 11-C , 12-C ) :   1.1184 B( 11-C , 70-H ) :   0.9268 B( 11-C , 71-H ) :   0.9501
B( 12-C , 72-H ) :   0.9642 B( 12-C , 73-H ) :   0.9682 B( 12-C , 74-H ) :   0.9685
B( 13-C , 14-C ) :   1.1405 B( 14-C , 15-C ) :   1.6300 B( 14-C , 75-H ) :   0.9592
B( 15-C , 16-C ) :   1.0678 B( 15-C , 76-H ) :   0.9628 B( 16-C , 17-C ) :   1.2967
B( 16-C , 24-C ) :   1.3203 B( 17-C , 18-C ) :   1.3820 B( 17-C , 77-H ) :   1.0065
B( 18-C , 19-N ) :   0.8518 B( 18-C , 22-C ) :   1.3633 B( 19-N , 20-O ) :   1.5533
B( 19-N , 21-O ) :   1.5297 B( 20-O , 21-O ) :   0.2749 B( 22-C , 23-C ) :   1.3237
B( 22-C , 25-C ) :   1.0740 B( 23-C , 24-C ) :   1.4165 B( 23-C , 78-H ) :   0.9922
B( 24-C , 79-H ) :   0.9911 B( 25-C , 26-C ) :   1.7030 B( 25-C , 80-H ) :   0.9560
B( 26-C , 27-C ) :   1.1695 B( 26-C , 81-H ) :   0.9671 B( 27-C , 28-C ) :   1.4707
B( 27-C , 40-C ) :   0.1023 B( 27-C , 41-S ) :   1.1022 B( 28-C , 29-C ) :   1.2447
B( 28-C , 82-H ) :   1.0070 B( 29-C , 30-C ) :   0.9754 B( 29-C , 40-C ) :   1.5389
B( 30-C , 31-C ) :   1.3879 B( 30-C , 35-C ) :   1.3203 B( 31-C , 32-C ) :   1.3269
B( 31-C , 83-H ) :   1.0013 B( 32-C , 33-C ) :   1.3235 B( 32-C , 38-O ) :   1.1360
B( 33-C , 34-C ) :   1.3101 B( 33-C , 84-H ) :   1.0065 B( 34-C , 35-C ) :   1.3190
B( 34-C , 36-O ) :   1.1499 B( 35-C , 85-H ) :   0.9975 B( 36-O , 37-C ) :   0.9694
B( 37-C , 86-H ) :   0.9789 B( 37-C , 87-H ) :   0.9685 B( 37-C , 88-H ) :   0.9699
B( 38-O , 39-C ) :   0.9661 B( 39-C , 89-H ) :   0.9791 B( 39-C , 90-H ) :   0.9695
B( 39-C , 91-H ) :   0.9699 B( 40-C , 41-S ) :   1.1199 B( 40-C , 42-C ) :   1.0833
B( 42-C , 43-S ) :   1.0807 B( 42-C , 44-C ) :   0.1320 B( 42-C , 46-C ) :   1.5514
B( 43-S , 44-C ) :   1.1153 B( 44-C , 45-C ) :   1.5167 B( 44-C , 53-C ) :   1.0698
B( 45-C , 46-C ) :   1.2237 B( 45-C , 52-O ) :   1.0391 B( 46-C , 47-O ) :   1.0687
B( 47-O , 48-C ) :   1.0892 B( 48-C , 49-O ) :   2.2202 B( 48-C , 50-C ) :   0.8425
B( 50-C , 51-O ) :   2.2448 B( 50-C , 52-O ) :   1.0761 B( 53-C , 54-C ) :   1.3252
B( 53-C , 61-C ) :   1.3501 B( 54-C , 55-O ) :   1.0828 B( 54-C , 58-C ) :   1.3530
B( 55-O , 56-C ) :   0.8970 B( 56-C , 57-C ) :   1.1066 B( 56-C , 92-H ) :   0.9470
B( 56-C , 93-H ) :   0.9589 B( 57-C , 94-H ) :   0.9606 B( 57-C , 95-H ) :   0.9648
B( 57-C , 96-H ) :   0.9615 B( 58-C , 59-C ) :   1.3598 B( 58-C , 62-C ) :   1.0153
B( 59-C , 60-C ) :   1.3610 B( 59-C , 97-H ) :   0.9975 B( 60-C , 61-C ) :   1.3683
B( 60-C , 98-H ) :   0.9900 B( 61-C , 99-H ) :   0.9916 B( 62-C , 63-C ) :   1.9630
B( 62-C ,100-H ) :   0.9608 B( 63-C ,101-H ) :   0.9548 B( 63-C ,102-H ) :   0.9522

-----------------------------------------------------------------------------
         ABSORPTION SPECTRUM VIA TRANSITION ELECTRIC DIPOLE MOMENTS
-----------------------------------------------------------------------------
State   Energy  Wavelength   fosc         T2         TX        TY        TZ
        (cm-1)    (nm)                  (au**2)     (au)      (au)      (au)
-----------------------------------------------------------------------------
   0   20448.3    489.0   1.129688318  18.18767   1.34364  -3.63176  -1.78679
   1   23308.3    429.0   0.282814606   3.99453  -1.19363   1.22802   1.03041
   2   26500.0    377.4   0.054134242   0.67252  -0.23559   0.41747  -0.66538
   3   27468.8    364.0   0.036905235   0.44231   0.29880  -0.55086  -0.22266
   4   28215.7    354.4   0.036002647   0.42007   0.11721  -0.29753  -0.56374
   5   29146.3    343.1   0.104660571   1.18216  -0.69335   0.78780  -0.28424
   6   29340.2    340.8   0.208998101   2.34507  -0.78300   1.26492  -0.36324
   7   30724.6    325.5   0.142446316   1.52630  -0.45972   0.39971   1.07480
   8   30952.4    323.1   0.119463641   1.27063  -0.40889  -0.44083   0.95347
   9   31052.8    322.0   0.070414156   0.74651   0.10657   0.48738  -0.70541
  10   31625.3    316.2   0.162117387   1.68760   0.35295  -0.93006  -0.83547
  11   32471.3    308.0   0.075392098   0.76437   0.51496  -0.51173  -0.48715
  12   33795.1    295.9   0.251375934   2.44876   0.01902   0.62530  -1.43436
  13   34264.7    291.8   0.012545539   0.12054   0.08584   0.08050  -0.32663
  14   35089.8    285.0   0.029055262   0.27260   0.13777   0.47976  -0.15312
  15   35500.8    281.7   0.083035081   0.77002   0.26935  -0.27438  -0.78878
  16   35771.0    279.6   0.060130626   0.55340  -0.30822   0.50250   0.45376
  17   35842.0    279.0   0.000707519   0.00650  -0.04989   0.05859   0.02401
  18   36732.4    272.2   0.174520788   1.56413   0.26984   0.07170  -1.21909
  19   37287.3    268.2   0.292235424   2.58017   0.54420   0.46560  -1.43779
  20   37441.7    267.1   0.130482720   1.14729  -0.15007  -0.11123   1.05470
  21   37914.6    263.8   0.105116379   0.91272   0.86800  -0.29444  -0.26947
  22   38159.2    262.1   0.049013397   0.42285  -0.15541   0.63065   0.03132
  23   38702.6    258.4   0.011004788   0.09361   0.12290   0.08640  -0.26653
  24   38819.1    257.6   0.036566880   0.31011  -0.00871   0.21684   0.51285
  25   39390.6    253.9   0.034398957   0.28749   0.48175  -0.01543  -0.23489
  26   39449.1    253.5   0.332712512   2.77656  -0.89636   0.07966   1.40241
  27   39911.0    250.6   0.079657710   0.65707  -0.14646   0.37807  -0.70191
  28   40184.2    248.9   0.034117902   0.27951  -0.14168   0.47369  -0.18723

FINAL SINGLE POINT ENERGY     -3636.826509938917

DIPOLE MOMENT
-------------
                                X             Y             Z
Electronic contribution:    -23.83383      12.54203      34.27079
Nuclear contribution   :     24.75370     -11.21392     -36.33253
                        -----------------------------------------
Total Dipole Moment    :      0.91987       1.32811      -2.06174
                        -----------------------------------------
Magnitude (a.u.)       :      2.61932
Magnitude (Debye)      :      6.65777

Rotational constants in cm-1:     0.001762     0.000364     0.000316
Rotational constants in MHz :    52.822043    10.926448     9.487368

                             ****ORCA TERMINATED NORMALLY****
TOTAL RUN TIME: 0 days 0 hours 11 minutes 14 seconds 949 msec
